13
Energy:      -1.1193822
Pt        -0.28193        0.21606       -0.05269
Pt        -1.62826        1.98962       -1.69653
Pt        -0.32195       -0.75880       -2.64227
Pt         1.87713       -1.12378       -1.18455
Pt        -0.38388       -2.74089       -0.81344
Pt        -2.86757       -0.08041       -2.88894
Pt        -2.68032       -0.80663       -0.33346
O          6.04360        1.21430       -0.00067
O          7.19319        1.16031        0.00184
C         -2.93737       10.81212        3.34127
C         10.63841       -5.39545        3.77230
O         -1.83561       10.69125        3.84978
O         10.59545       -4.09311        4.26717
