   13
Starting structure. Energy in au =     0.00000000
Pt     -0.28193000      0.21606000     -0.05269000
Pt     -1.62826000      1.98962000     -1.69653000
Pt     -0.32195000     -0.75880000     -2.64227000
Pt      1.87713000     -1.12378000     -1.18455000
Pt     -0.38388000     -2.74089000     -0.81344000
Pt     -2.86757000     -0.08041000     -2.88894000
Pt     -2.68032000     -0.80663000     -0.33346000
O       6.04360001      1.21430000     -0.00067000
O       7.19319001      1.16031000      0.00184000
C      -2.93737000     10.81212002      3.34127001
C      10.63841002     -5.39545001      3.77230001
O      -1.83561000     10.69125002      3.84978001
O      10.59545002     -4.09311001      4.26717001
   13
Product of reaction   1 Energy in au =     0.00000000
Pt     -0.28193000      0.21606000     -0.05269000
Pt     -1.62826000      1.98962000     -1.69653000
Pt     -0.32195000     -0.75880000     -2.64227000
Pt      1.87713000     -1.12378000     -1.18455000
Pt     -0.38388000     -2.74089000     -0.81344000
Pt     -2.86757000     -0.08041000     -2.88894000
Pt     -2.68032000     -0.80663000     -0.33346000
O       0.39239429     -1.78537872      1.00550078
O       1.57371081     -3.72738341     -0.69270080
C      -2.93737000     10.81212002      3.34127001
C      10.63841002     -5.39545001      3.77230001
O      -1.83561000     10.69125002      3.84978001
O      10.59545002     -4.09311001      4.26717001
   13
Product of reaction   2 Energy in au =     0.00000000
Pt     -0.28193000      0.21606000     -0.05269000
Pt     -1.62826000      1.98962000     -1.69653000
Pt     -0.32195000     -0.75880000     -2.64227000
Pt      1.87713000     -1.12378000     -1.18455000
Pt     -0.38388000     -2.74089000     -0.81344000
Pt     -2.86757000     -0.08041000     -2.88894000
Pt     -2.68032000     -0.80663000     -0.33346000
O       0.77087780     -3.17072203      1.00622043
O       0.48079851     -0.68159845      1.67610172
C      -0.58340050     -1.34577292      1.05006262
C      10.63841002     -5.39545001      3.77230001
O      -1.55495468     -0.78339689      1.53749463
O      10.59545002     -4.09311001      4.26717001
   13
Product of reaction   3 Energy in au =     0.00000000
Pt     -0.28193000      0.21606000     -0.05269000
Pt     -1.62826000      1.98962000     -1.69653000
Pt     -0.32195000     -0.75880000     -2.64227000
Pt      1.87713000     -1.12378000     -1.18455000
Pt     -0.38388000     -2.74089000     -0.81344000
Pt     -2.86757000     -0.08041000     -2.88894000
Pt     -2.68032000     -0.80663000     -0.33346000
O       0.55203647     -0.75581117     -0.82118894
O       0.66100235     -1.40970375      1.93987683
C      -0.52156746     -1.90871155      1.36915705
C      10.63841002     -5.39545001      3.77230001
O      -1.57689679     -1.52882947      1.86506234
O      10.59545002     -4.09311001      4.26717001
   13
Product of reaction   4 Energy in au =     0.00000000
Pt     -0.28193000      0.21606000     -0.05269000
Pt     -1.62826000      1.98962000     -1.69653000
Pt     -0.32195000     -0.75880000     -2.64227000
Pt      1.87713000     -1.12378000     -1.18455000
Pt     -0.38388000     -2.74089000     -0.81344000
Pt     -2.86757000     -0.08041000     -2.88894000
Pt     -2.68032000     -0.80663000     -0.33346000
O       0.52278279     -0.74571072     -0.81125203
O       0.72126600     -1.60810736      1.96772055
C      -0.49919717     -2.04481391      1.42049835
C      10.63841002     -5.39545001      3.77230001
O      -1.58446982     -1.74778584      1.91366472
O      10.59545002     -4.09311001      4.26717001
   13
Product of reaction   5 Energy in au =     0.00000000
Pt     -0.28193000      0.21606000     -0.05269000
Pt     -1.62826000      1.98962000     -1.69653000
Pt     -0.32195000     -0.75880000     -2.64227000
Pt      1.87713000     -1.12378000     -1.18455000
Pt     -0.38388000     -2.74089000     -0.81344000
Pt     -2.86757000     -0.08041000     -2.88894000
Pt     -2.68032000     -0.80663000     -0.33346000
O       1.74171073     -3.20628457     -1.03328930
O       0.75359064     -1.76136436      1.99690734
C      -0.48557772     -2.15543262      1.45461569
C       1.25165309     -2.43213901     -2.11560495
O      -1.61156789     -2.03737249      1.93624360
O       2.56588036     -2.50022149     -2.58843303
   13
Product of reaction   6 Energy in au =     0.00000000
Pt     -0.28193000      0.21606000     -0.05269000
Pt     -1.62826000      1.98962000     -1.69653000
Pt     -0.32195000     -0.75880000     -2.64227000
Pt      1.87713000     -1.12378000     -1.18455000
Pt     -0.38388000     -2.74089000     -0.81344000
Pt     -2.86757000     -0.08041000     -2.88894000
Pt     -2.68032000     -0.80663000     -0.33346000
O       0.71112966     -2.94815722     -2.69720695
O       0.02965782     -3.73308516      9.65084793
C      -1.31739098     -4.02110387      9.35061345
C       1.25962844     -2.13315875     -3.72260515
O      -2.52802718     -4.03694266      9.57476211
O       2.28579625     -1.88405091     -4.64139693
   13
Product of reaction   7 Energy in au =     0.00000000
Pt     -0.28193000      0.21606000     -0.05269000
Pt     -1.62826000      1.98962000     -1.69653000
Pt     -0.32195000     -0.75880000     -2.64227000
Pt      1.87713000     -1.12378000     -1.18455000
Pt     -0.38388000     -2.74089000     -0.81344000
Pt     -2.86757000     -0.08041000     -2.88894000
Pt     -2.68032000     -0.80663000     -0.33346000
O       0.99525900     -3.40728805     -3.35026116
O       0.05769962     -3.74994263      9.61086366
C      -1.32367466     -3.97866621      9.43842823
C       1.21079155     -2.09135780     -3.84190869
O      -2.54982617     -4.06263384      9.52737479
O       2.26458486     -1.74341542     -4.69717046
   13
Product of reaction   8 Energy in au =     0.00000000
Pt     -0.28193000      0.21606000     -0.05269000
Pt     -1.62826000      1.98962000     -1.69653000
Pt     -0.32195000     -0.75880000     -2.64227000
Pt      1.87713000     -1.12378000     -1.18455000
Pt     -0.38388000     -2.74089000     -0.81344000
Pt     -2.86757000     -0.08041000     -2.88894000
Pt     -2.68032000     -0.80663000     -0.33346000
O       0.93228760     -3.45183668     -3.42274551
O      -2.05499879      1.66290149      0.43991691
C      -1.94674413      0.89903351      1.62531429
C       1.15763129     -2.12244592     -3.87558910
O      -1.70849610      0.02233427      2.46110681
O       2.17311520     -1.59763211     -4.68782286
   13
Product of reaction   9 Energy in au =     0.00000000
Pt     -0.28193000      0.21606000     -0.05269000
Pt     -1.62826000      1.98962000     -1.69653000
Pt     -0.32195000     -0.75880000     -2.64227000
Pt      1.87713000     -1.12378000     -1.18455000
Pt     -0.38388000     -2.74089000     -0.81344000
Pt     -2.86757000     -0.08041000     -2.88894000
Pt     -2.68032000     -0.80663000     -0.33346000
O       0.89136075     -3.42472313     -4.32220314
O      -4.84887270      4.82535814      6.56455717
C      -4.70401626      4.00462092      7.70838101
C       0.89566994     -2.00296039     -4.23913698
O      -4.49822025      3.17175813      8.59726899
O       1.76343102     -1.49305613     -5.21817302
   13
Product of reaction  10 Energy in au =     0.00000000
Pt     -0.28193000      0.21606000     -0.05269000
Pt     -1.62826000      1.98962000     -1.69653000
Pt     -0.32195000     -0.75880000     -2.64227000
Pt      1.87713000     -1.12378000     -1.18455000
Pt     -0.38388000     -2.74089000     -0.81344000
Pt     -2.86757000     -0.08041000     -2.88894000
Pt     -2.68032000     -0.80663000     -0.33346000
O       4.62160304     -6.81570194    -10.11801723
O      -5.29638093      5.35571620      7.62351844
C      -5.14380270      4.52278204      8.75859421
C       4.73575850     -5.39598156    -10.16331887
O      -4.94553575      3.70008830      9.65982010
O       5.56235881     -4.73115219    -11.08450282
