LAMMPS (22 Aug 2018)
Created orthogonal box = (-810.812 -810.812 -810.812) to (810.812 810.812 810.812)
  1 by 1 by 1 MPI processor grid
Created 1 atoms
  Time spent = 9.05991e-06 secs
Created 1 atoms
  Time spent = 0.000342131 secs
Created 1 atoms
  Time spent = 9.53674e-07 secs
Created 1 atoms
  Time spent = 9.53674e-07 secs
Created 1 atoms
  Time spent = 0 secs
Created 1 atoms
  Time spent = 0 secs
Created 1 atoms
  Time spent = 9.53674e-07 secs
Created 1 atoms
  Time spent = 0 secs
Created 1 atoms
  Time spent = 0 secs
Created 1 atoms
  Time spent = 0 secs
Created 1 atoms
  Time spent = 0 secs
Created 1 atoms
  Time spent = 9.53674e-07 secs
Created 1 atoms
  Time spent = 9.53674e-07 secs
