   48
Starting structure. Energy in au =   -18.82815612
C      -3.98804729      1.85031413     -0.00313089
C      -2.81448562      2.04670249      0.00166063
H      -5.03771946      1.67339074     -0.00865160
H      -1.76491767      2.22427265      0.00641186
C      -9.70954720     -6.21673454     -0.09660489
C      -8.62054525     -5.72614532     -0.06176823
H      -7.64946763     -5.28870020     -0.03041688
C      10.52613002      1.23166000     -1.61338000
C      10.90833002      0.27069000     -1.21965000
H      10.74562002      2.14124000     -1.05764000
H       9.55024002      1.17440000     -2.09021000
C      11.05641002     -0.76065000     -0.30760000
C      11.17299002     -1.66318000      0.51369000
H      11.23471002     -2.42138000      1.26626000
C       2.05526000      7.74703001    -14.99211002
C       1.53014000      6.69501001    -14.34834002
H       2.71321000      8.45096001    -14.48749002
H       1.83864000      7.92913001    -16.04140003
C       1.78555000      6.40289001    -12.94585002
H       0.87257000      5.99854001    -14.86761002
C       1.26213000      5.35153001    -12.29962002
H       2.44323000      7.09852001    -12.42421002
H       0.60411000      4.64424001    -12.79823002
H       1.48211000      5.17325001    -11.24940002
H       7.19224001     11.37122002     -8.97561001
H       7.43615001     11.07161002     -8.30918001
C      11.35675002     -0.53807000    -10.90786002
C      11.08005002      0.00936000    -11.92022002
H      11.58571002     -1.00042000     -9.97469002
C      10.71125002      0.72676000    -13.14668002
H      11.54031002      1.35579000    -13.47751002
H       9.84154002      1.36107000    -12.96125002
H      10.46697002      0.01684000    -13.93946002
H       8.24745001      4.46912001    -22.24402004
C      10.28443002      4.51699001    -21.70208003
C       8.86787001      4.76457001    -21.39546003
C      11.42854002      4.31220001    -21.91185003
H      12.46630002      4.12324001    -22.06613004
H       8.70997001      5.82853001    -21.20636003
C       3.88005001     13.88391002      3.26754001
C       4.14154001     13.98666002      1.98133000
C       4.41140001     14.05335002      0.69354000
H       4.64475001     15.22140002     -1.03409000
C       4.41430001     15.20046002      0.02768000
H       4.19071001     16.14372003      0.51837000
H       4.64794001     13.14306002      0.14094000
H       3.54845001     14.73276002      3.86658001
H       3.96168001     12.93025002      3.79423001
