    4
Starting structure. Energy in au =    -7.10453642
C      -0.08633923      0.00000000      0.00000000
O      -1.21366078      0.00000000      0.00000000
H       5.50000002     -0.03165199      0.00000000
H       5.50000002     -0.80834802      0.00000000
    4
Product of reaction   1 Energy in au =    -7.10453642
C      -2.99216528      0.19844666      0.00000000
O      -4.11948683      0.19844665      0.00000000
H       8.40582607     -0.23009747      0.00000000
H       8.40582607     -1.00679585      0.00000000
    4
Product of reaction   2 Energy in au =    -7.10453642
C      -2.99221760      0.19845023      0.00000000
O      -4.11953915      0.19845022      0.00000000
H       8.40587839     -0.23010131      0.00000000
H       8.40587839     -1.00679915      0.00000000
    4
Product of reaction   3 Energy in au =    -7.09618244
C       2.43643450     -1.00793526      0.00000000
O       1.68054797      0.00948150     -0.00000000
H       2.05670836      0.92243916      0.00000000
H       3.52630923     -0.76398541     -0.00000000
    4
Product of reaction   4 Energy in au =    -7.09618243
C       2.43990426     -1.00782246     -0.00000000
O       1.67957532      0.00625147      0.00000000
H       2.05182457      0.92081985     -0.00000000
H       3.52869593     -0.75924887      0.00000000
    4
Product of reaction   5 Energy in au =    -7.17564809
C       2.42420737     -0.21026089      0.00000000
O       1.29173891     -0.58253701     -0.00000000
H       2.70249707      0.85717907     -0.00000000
H       3.28155675     -0.90438118     -0.00000000
    4
Product of reaction   6 Energy in au =    -7.17564809
C       2.42419552     -0.21026450     -0.00000000
O       1.29175339     -0.58252703      0.00000000
H       2.70248443      0.85719487      0.00000000
H       3.28156677     -0.90440336      0.00000000
