   48
Starting structure. Energy in au =     0.00000000
C      -3.98581001      1.86100000     -0.01413000
C      -2.81987000      2.05034000     -0.01250000
H      -5.03326001      1.66573000      0.00341000
H      -1.76623000      2.21761000      0.01951000
C      -9.70430002     -6.20861001     -0.09633000
C      -8.62099001     -5.73794001     -0.06200000
H      -7.65427001     -5.28503001     -0.03046000
C      10.52613002      1.23166000     -1.61338000
C      10.90833002      0.27069000     -1.21965000
H      10.74562002      2.14124000     -1.05764000
H       9.55024002      1.17440000     -2.09021000
C      11.05641002     -0.76065000     -0.30760000
C      11.17299002     -1.66318000      0.51369000
H      11.23471002     -2.42138000      1.26626000
C       2.05526000      7.74703001    -14.99211002
C       1.53014000      6.69501001    -14.34834002
H       2.71321000      8.45096001    -14.48749002
H       1.83864000      7.92913001    -16.04140003
C       1.78555000      6.40289001    -12.94585002
H       0.87257000      5.99854001    -14.86761002
C       1.26213000      5.35153001    -12.29962002
H       2.44323000      7.09852001    -12.42421002
H       0.60411000      4.64424001    -12.79823002
H       1.48211000      5.17325001    -11.24940002
H       7.19224001     11.37122002     -8.97561001
H       7.43615001     11.07161002     -8.30918001
C      11.35675002     -0.53807000    -10.90786002
C      11.08005002      0.00936000    -11.92022002
H      11.58571002     -1.00042000     -9.97469002
C      10.71125002      0.72676000    -13.14668002
H      11.54031002      1.35579000    -13.47751002
H       9.84154002      1.36107000    -12.96125002
H      10.46697002      0.01684000    -13.93946002
H       8.24745001      4.46912001    -22.24402004
C      10.28443002      4.51699001    -21.70208003
C       8.86787001      4.76457001    -21.39546003
C      11.42854002      4.31220001    -21.91185003
H      12.46630002      4.12324001    -22.06613004
H       8.70997001      5.82853001    -21.20636003
C       3.88005001     13.88391002      3.26754001
C       4.14154001     13.98666002      1.98133000
C       4.41140001     14.05335002      0.69354000
H       4.64475001     15.22140002     -1.03409000
C       4.41430001     15.20046002      0.02768000
H       4.19071001     16.14372003      0.51837000
H       4.64794001     13.14306002      0.14094000
H       3.54845001     14.73276002      3.86658001
H       3.96168001     12.93025002      3.79423001
   48
Product of reaction   1 Energy in au =     0.00000000
C      -3.34096900      2.80260259     -0.00235109
C      -2.16649621      2.99961534      0.00266684
H      -4.39548515      2.61721506      0.00578175
H      -1.10794178      3.17030828      0.02078105
C     -10.57178092     -7.47910850     -0.10673057
C      -9.48911010     -6.99552026     -0.07205790
H      -8.51294690     -6.55201252     -0.04059008
C      10.40177537      1.24127484     -0.95152479
C      10.84848323      0.28128125     -0.57600372
H      10.77124339      2.21278403     -0.58640208
H       9.54380128      1.23295192     -1.64147074
C      11.10595005     -0.82633785      0.22605724
C      11.17002540     -1.70025225      1.09311346
H      11.22174859     -2.45490526      1.85610338
C       1.55663796      7.54494062    -15.35761481
C       1.04282669      6.48662958    -14.66600830
H       2.22940177      8.32053812    -14.96091894
H       1.36962670      7.77410046    -16.41716908
C       1.26178215      6.13466176    -13.24723922
H       0.38444550      5.81545312    -15.24135627
C       0.74913617      5.07669385    -12.55427078
H       1.92030220      6.80657360    -12.67165977
H       0.07679379      4.30056730    -12.94910443
H       0.93792917      4.84922570    -11.49369541
H       9.80936372     12.55084280     -8.82562898
H      10.05327372     12.25123280     -8.15919898
C      11.60254013     -1.01950973    -10.62701240
C      11.32312252     -0.46706016    -11.64628461
H      11.84054486     -1.49612787     -9.69776430
C      10.95266463      0.25502101    -12.89251301
H      11.81837936      0.87905664    -13.19866515
H      10.06729820      0.88763447    -12.67064249
H      10.71450183     -0.49962935    -13.67101694
H       8.06845847      4.79746572    -23.16327566
C      10.22112205      4.95100164    -22.64892993
C       8.80515021      5.38645619    -22.59241201
C      11.37379478      4.73358324    -22.84325723
H      12.41333224      4.56774141    -23.03955115
H       8.57745869      6.29914065    -22.01696605
C       3.73475704     13.93983170      3.58979001
C       4.00838460     14.01660125      2.28907309
C       4.27868083     14.12072196      0.98824365
H       4.50001462     15.39606147     -0.75550885
C       4.27903878     15.29177796      0.31694822
H       4.05961228     16.27329240      0.76160107
H       4.49813152     13.13532290      0.54346649
H       3.41194873     14.83341143      4.14880395
H       3.83424727     12.96820910      4.10483495
   48
Product of reaction   2 Energy in au =     0.00000000
C      -3.34549102      2.80177167     -0.00229900
C      -2.16195251      3.00035186      0.00278303
H      -4.40473983      2.61571602      0.00565996
H      -1.09870790      3.17190301      0.02073457
C     -10.57590579     -7.48103624     -0.10686500
C      -9.48916567     -6.99539818     -0.07205562
H      -8.50876735     -6.55020815     -0.04045793
C      10.39720329      1.25140425     -0.95362547
C      10.85212800      0.27838319     -0.57627458
H      10.77754881      2.22992427     -0.58063326
H       9.53054665      1.23417831     -1.65245684
C      11.11092015     -0.83350365      0.22809255
C      11.17167907     -1.70856324      1.10173860
H      11.22241901     -2.46476712      1.86801836
C       1.56366424      7.55989856    -15.36811233
C       1.03537665      6.48093204    -14.67656798
H       2.24344676      8.33810718    -14.95557958
H       1.36634274      7.78019159    -16.44018983
C       1.26924034      6.14036861    -13.23666117
H       0.36978599      5.80091042    -15.25501109
C       0.74212324      5.06173524    -12.54375948
H       1.93495442      6.82112500    -12.65798561
H       0.06275029      4.28300833    -12.95447669
H       0.94119407      4.84310484    -11.47069534
H       9.80936638     12.55084361     -8.82562969
H      10.05327638     12.25123360     -8.15919969
C      11.60581076     -1.02625900    -10.61701392
C      11.32490377     -0.47075714    -11.64282503
H      11.84463717     -1.50455317     -9.68425334
C      10.94987102      0.26012860    -12.90329601
H      11.83486833      0.89012633    -13.20532529
H      10.05077110      0.89895644    -12.66753992
H      10.71023054     -0.51459928    -13.68647058
H       8.05829525      4.79050250    -23.17176940
C      10.22243586      4.95056761    -22.65007269
C       8.79623053      5.39051665    -22.59460401
C      11.38184037      4.73222353    -22.84568737
H      12.42538048      4.56633720    -23.04356487
H       8.57367508      6.31132427    -22.01085509
C       3.73134684     13.93831719      3.60639204
C       4.00759685     14.01531660      2.29321918
C       4.28185623     14.11053838      0.97944812
H       4.50424854     15.39918173     -0.77669170
C       4.27916414     15.30591335      0.30834061
H       4.05554774     16.29263205      0.76925322
H       4.50281086     13.11327573      0.53446746
H       3.40637745     14.84866982      4.15842757
H       3.83586503     12.95138600      4.11439956
   48
Product of reaction   3 Energy in au =     0.00000000
C      -3.34988741      2.80097277     -0.00225707
C      -2.15753709      3.00107048      0.00288402
H      -4.41371811      2.61425459      0.00555140
H      -1.08974821      3.17344535      0.02070021
C     -10.57997124     -7.48292800     -0.10699728
C      -9.48921392     -6.99529174     -0.07205364
H      -8.50465407     -6.54842346     -0.04032764
C      10.39312358      1.26081194     -0.95610218
C      10.85590567      0.27535220     -0.57700180
H      10.78320908      2.24638953     -0.57555987
H       9.51780957      1.23572262     -1.66314380
C      11.11565795     -0.84036469      0.22970477
C      11.17324845     -1.71648736      1.10961882
H      11.22303519     -2.47416469      1.87906080
C       1.57006690      7.57382427    -15.37830870
C       1.02857960      6.47575976    -14.68625662
H       2.25650634      8.35455647    -14.95085619
H       1.36348889      7.78637972    -16.46210578
C       1.27604442      6.14554933    -13.22695531
H       0.35620424      5.78751692    -15.26783280
C       0.73573247      5.04780919    -12.53355247
H       1.94852923      6.83452606    -12.64514550
H       0.04969262      4.26656797    -12.95922909
H       0.94403234      4.83689093    -11.44879769
H       9.80936774     12.55084402     -8.82563005
H      10.05327774     12.25123402     -8.15920005
C      11.60893931     -1.03265716    -10.60719672
C      11.32668496     -0.47437923    -11.63907485
H      11.84852482     -1.51250636     -9.67112387
C      10.94733677      0.26480840    -12.91294543
H      11.85015528      0.90099100    -13.21204799
H      10.03504674      0.91003877    -12.66507442
H      10.70600048     -0.52820991    -13.70147594
H       8.04839145      4.78389301    -23.17953554
C      10.22387861      4.94984584    -22.65071512
C       8.78786722      5.39407488    -22.59621386
C      11.38968419      4.73075289    -22.84771642
H      12.43707083      4.56481437    -23.04708452
H       8.56982514      6.32284447    -22.00479022
C       3.72815413     13.93692674      3.62192627
C       4.00687660     14.01401749      2.29707114
C       4.28480424     14.10088635      0.97138757
H       4.50823437     15.40256746     -0.79688820
C       4.27937467     15.31890732      0.29998811
H       4.05179305     16.31066100      0.77623455
H       4.50730560     13.09273279      0.52546666
H       3.40106824     14.86274415      4.16806516
H       3.83720175     12.93578791      4.12400659
   48
Product of reaction   4 Energy in au =     0.00000000
C      -3.35417738      2.80019725     -0.00221926
C      -2.15322937      3.00177213      0.00297760
H      -4.42246842      2.61282728      0.00544921
H      -1.08101542      3.17494686      0.02067101
C     -10.58397968     -7.48478862     -0.10712758
C      -9.48925785     -6.99519465     -0.07205183
H      -8.50060194     -6.54666026     -0.04019915
C      10.38939025      1.26969375     -0.95881013
C      10.85973778      0.27227067     -0.57801800
H      10.78836026      2.26234498     -0.57102717
H       9.50549946      1.23755166     -1.67356945
C      11.12024459     -0.84700757      0.23101819
C      11.17477674     -1.72416517      1.11699410
H      11.22360881     -2.48326229      1.88954319
C       1.57598448      7.58694570    -15.38826789
C       1.02231598      6.47102728    -14.69525655
H       2.26878583      8.37015966    -14.94670655
H       1.36098988      7.79266765    -16.48315248
C       1.28231458      6.15028985    -13.21793840
H       0.34349843      5.77506785    -15.27999934
C       0.72982559      5.03468761    -12.52358512
H       1.96122865      6.84698217    -12.63296063
H       0.03741537      4.25097346    -12.96340607
H       0.94651733      4.83057874    -11.42776771
H       9.80936848     12.55084424     -8.82563025
H      10.05327848     12.25123424     -8.15920025
C      11.61195483     -1.03878686    -10.59755422
C      11.32845413     -0.47792944    -11.63516261
H      11.85226557     -1.52012349     -9.65829857
C      10.94500524      0.26914478    -12.92174280
H      11.86448543      0.91163387    -13.21879675
H      10.01999689      0.92087343    -12.66310522
H      10.70182722     -0.54076801    -13.71608893
H       8.03867835      4.77759445    -23.18675638
C      10.22540632      4.94894995    -22.65104367
C       8.77993246      5.39728482    -22.59744569
C      11.39737247      4.72921149    -22.84947181
H      12.44850010      4.56321370    -23.05027097
H       8.56589837      6.33384582    -21.99881131
C       3.72513297     13.93562102      3.63662479
C       4.00621194     14.01270550      2.30067429
C       4.28757893     14.09166850      0.96386947
H       4.51201968     15.40618384     -0.81629666
C       4.27965171     15.33100617      0.29183814
H       4.04829196     16.32765322      0.78264790
H       4.51165175     13.07336666      0.51648184
H       3.39596243     14.87588020      4.17773047
H       3.83831071     12.92114630      4.13368861
   48
Product of reaction   5 Energy in au =     0.00000000
C      -3.35837332      2.79944051     -0.00218279
C      -2.14901631      3.00245784      0.00306737
H      -4.43102124      2.61143109      0.00535020
H      -1.07247961      3.17641425      0.02064377
C     -10.58793332     -7.48662086     -0.10725602
C      -9.48929884     -6.99510393     -0.07205015
H      -8.49660742     -6.54491892     -0.04007240
C      10.38592573      1.27815894     -0.96168111
C      10.86359188      0.26917859     -0.57924725
H      10.79307763      2.27788497     -0.56694933
H       9.49355864      1.23964515     -1.68376112
C      11.12472213     -0.85348020      0.23209824
C      11.17628659     -1.73167374      1.12399084
H      11.22414603     -2.49214881      1.89962975
C       1.58150257      7.59940554    -15.39803338
C       1.01650706      6.46667754    -14.70368612
H       2.28041326      8.38508266    -14.94309430
H       1.35879865      7.79905949    -16.50348223
C       1.28812983      6.15464746    -13.20949176
H       0.33153900      5.76343083    -15.29162298
C       0.72431720      5.02222778    -12.51381355
H       1.97318225      6.85862596    -12.62131835
H       0.02579050      4.23605922    -12.96704495
H       0.94869528      4.82416313    -11.40745345
H       9.80936889     12.55084437     -8.82563036
H      10.05327889     12.25123437     -8.15920036
C      11.61487553     -1.04469666    -10.58807204
C      11.33020474     -0.48140814    -11.63115673
H      11.85589285     -1.52748186     -9.64572122
C      10.94283954      0.27319642    -12.92985772
H      11.87800547      0.92205656    -13.22555284
H      10.00553820      0.93146664    -12.66154806
H      10.69771536     -0.55245070    -13.73034870
H       8.02911458      4.77157872    -23.19353118
C      10.22699642      4.94793445    -22.65114906
C       8.77235186      5.40022593    -22.59840043
C      11.40493565      4.72761854    -22.85101985
H      12.45972780      4.56155418    -23.05320744
H       8.56188864      6.34441155    -21.99293293
C       3.72225471     13.93437838      3.65063079
C       4.00559575     14.01137479      2.30406040
C       4.29021313     14.08282193      0.95677896
H       4.51563483     15.41001180     -0.83504551
C       4.27998472     15.34235959      0.28385476
H       4.04501026     16.34377658      0.78855471
H       4.51587347     13.05498193      0.50751214
H       3.39102284     14.88822512      4.18744177
H       3.83922205     12.90730139      4.14347134
   48
Product of reaction   6 Energy in au =     0.00000000
C      -3.36247866      2.79870173     -0.00214761
C      -2.14489442      3.00312829      0.00315362
H      -4.43938406      2.61006494      0.00525421
H      -1.06413327      3.17784882      0.02061834
C     -10.59183332     -7.48842553     -0.10738264
C      -9.48933714     -6.99501911     -0.07204857
H      -8.49266920     -6.54319916     -0.03994736
C      10.38269434      1.28624402     -0.96466753
C      10.86746163      0.26608766     -0.58065830
H      10.79741355      2.29302650     -0.56326062
H       9.48196456      1.24195638     -1.69371732
C      11.12909201     -0.85978425      0.23298150
C      11.17777719     -1.73901794      1.13065243
H      11.22464796     -2.50083169      1.90936369
C       1.58667129      7.61126740    -15.40758807
C       1.01109311      6.46265593    -14.71161105
H       2.29145834      8.39939492    -14.93995498
H       1.35687101      7.80551233    -16.52313823
C       1.29354987      6.15867675    -13.20154979
H       0.32024590      5.75251567    -15.30275538
C       0.71915730      5.01036602    -12.50425449
H       1.98446999      6.86954765    -12.61016717
H       0.01474822      4.22175574    -12.97021016
H       0.95061029      4.81768702    -11.38781191
H       9.80936912     12.55084444     -8.82563042
H      10.05327912     12.25123444     -8.15920042
C      11.61770316     -1.05039590    -10.57877057
C      11.33192882     -0.48480601    -11.62710748
H      11.85941175     -1.53459732     -9.63340096
C      10.94081524      0.27700433    -12.93739201
H      11.89081824      0.93225083    -13.23227434
H       9.99162128      0.94181283    -12.66031617
H      10.69367371     -0.56338348    -13.74425213
H       8.01970040      4.76582403    -23.19991528
C      10.22863370      4.94682055    -22.65106743
C       8.76509512      5.40293445    -22.59912609
C      11.41237070      4.72599041    -22.85239507
H      12.47075543      4.55985282    -23.05593156
H       8.55781649      6.35458230    -21.98716292
C       3.71950847     13.93319209      3.66399734
C       4.00502405     14.01003342      2.30724230
C       4.29272185     14.07431588      0.95006567
H       4.51909536     15.41400116     -0.85317739
C       4.28036168     15.35305120      0.27604568
H       4.04192454     16.35912081      0.79401057
H       4.51997690     13.03748302      0.49858397
H       3.38623661     14.89986699      4.19716997
H       3.83996216     12.89416699      4.15332156
   48
Product of reaction   7 Energy in au =     0.00000000
C       6.45675874      0.22378317     -8.40373807
C       5.51934401      0.51259755     -7.63913173
H       7.05614187      1.12550294      2.05249889
H       4.70079080      0.75240538     -6.94495067
C     -10.59539370     -7.49088674     -0.10752061
C      -9.49001364     -6.99351900     -0.07202066
H      -8.48843231     -6.54223807     -0.03983729
C       8.24793669      1.20281214      1.80263842
C       8.89675098      0.31466920      2.31650601
H       8.63935309      2.23890770      2.20513269
H       8.36975725      1.15067617      0.63254510
C       9.97866539     -0.48950463      2.76214241
C      10.89556374     -1.21211916      3.24533747
H      11.54739367     -1.92422353      3.76055534
C       0.55750291      8.62321484    -16.26049469
C      -0.00371960      7.47320013    -15.51757440
H       1.26946572      9.42713494    -15.80473928
H       0.33685985      8.83514819    -17.38592974
C       0.23804901      7.10610262    -13.99691928
H      -0.70027522      6.75732103    -16.11361952
C      -0.32238798      5.95607450    -13.25358826
H       0.93453091      7.82272537    -13.40049221
H      -1.03391681      5.15209359    -13.70842759
H      -0.10078457      5.74461703    -12.12729299
H       9.80990208     12.55290512     -8.82571243
H      10.05381209     12.25329512     -8.15928243
C      10.47011315     -1.28251720    -10.52843113
C       9.42873351     -0.82100672    -10.05516338
H      11.33540312     -1.63985422    -11.09465670
C       8.02750589     -0.09658181    -10.17379129
H       7.30811973     -0.00483337     -9.20132764
H       8.31758146      1.00172167    -10.58237837
H       7.53279243     -0.74953005    -11.05968080
H       7.99451599      4.76422631    -23.18696351
C      10.24183607      4.97154160    -22.68364317
C       8.76255126      5.40640558    -22.60278584
C      11.43184623      4.72249528    -22.85351843
H      12.49416844      4.53865103    -23.04391675
H       8.52945383      6.35268475    -21.97477066
C       3.71670797     13.91928350      3.68510273
C       4.00459013     13.99031373      2.31645501
C       4.29249639     14.07445309      0.94864023
H       4.52449976     15.44845728     -0.89731130
C       4.28770780     15.35581243      0.24114565
H       4.04803185     16.37293865      0.76085484
H       4.52523257     13.03994304      0.47058153
H       3.37880124     14.88328695      4.24139625
H       3.82665655     12.89077327      4.22054767
   48
Product of reaction   8 Energy in au =     0.00000000
C       2.05218833      1.77192262     -3.77024378
C       1.56975410      1.76513672     -4.92507127
H       2.31599499      1.82263949     -2.65036384
H       0.93314259      1.81603973     -5.82557685
C     -10.59919536     -7.49266389     -0.10764454
C      -9.49006525     -6.99340453     -0.07201853
H      -8.48457905     -6.54057538     -0.03971549
C       9.47630633      1.08577308      3.00784768
C       9.88548287      0.10664398      3.62397133
H       9.48165648      2.15291428      3.53256304
H       9.20943561      0.98501383      1.85431402
C      10.93512450     -0.73411668      4.09472626
C      11.87347013     -1.44487972      4.56911523
H      12.58256924     -2.12678161      5.05671442
C       0.55421494      8.66611233    -16.32767879
C      -0.01480001      7.50167815    -15.57765916
H       1.27212404      9.47414820    -15.86259721
H       0.32765685      8.87443964    -17.46349386
C       0.23111550      7.13315341    -14.04129356
H      -0.71704312      6.77909267    -16.17662470
C      -0.33717448      5.96861169    -13.29106451
H       0.93321800      7.85649082    -13.44188905
H      -1.05464430      5.16059528    -13.75538487
H      -0.10976882      5.76054946    -12.15441499
H       9.80990208     12.55290512     -8.82571243
H      10.05381209     12.25329512     -8.15928243
C      11.93536865     -1.80764366    -12.24630376
C      10.87229778     -1.32730723    -11.82381652
H      12.80402183     -2.17003974    -12.81245673
C       9.46322053     -0.59358502    -11.98151499
H       8.82904011     -0.57085943    -10.93090471
H       9.72708022      0.54647909    -12.33212215
H       8.87297688     -1.25168395    -12.82374809
H       7.98280139      4.75703881    -23.18809740
C      10.24562282      4.97879787    -22.69301244
C       8.75521294      5.40887830    -22.60266259
C      11.44167359      4.72284621    -22.85753636
H      12.50809723      4.52885675    -23.03895930
H       8.52096385      6.35958663    -21.96533025
C       3.71379844     13.91536969      3.70095743
C       4.00392674     13.98680170      2.32116293
C       4.29444852     14.06848321      0.94250008
H       4.52875292     15.45453552     -0.92023914
C       4.28919213     15.36620952      0.22859697
H       4.04670187     16.38908675      0.75885640
H       4.52935789     13.02705270      0.45784713
H       3.37308471     14.88980781      4.25776692
H       3.82546107     12.87791504      4.23996389
