
                                 *****************
                                 * O   R   C   A *
                                 *****************

           --- An Ab Initio, DFT and Semiempirical electronic structure package ---

                  #######################################################
                  #                        -***-                        #
                  #          Department of theory and spectroscopy      #
                  #               Directorship: Frank Neese             #
                  #        Max Planck Institute fuer Kohlenforschung    #
                  #                Kaiser Wilhelm Platz 1               #
                  #                 D-45470 Muelheim/Ruhr               #
                  #                      Germany                        #
                  #                                                     #
                  #                  All rights reserved                #
                  #                        -***-                        #
                  #######################################################


                         Program Version 4.2.1 -  RELEASE  -


 With contributions from (in alphabetic order):
   Daniel Aravena         : Magnetic Suceptibility
   Michael Atanasov       : Ab Initio Ligand Field Theory (pilot matlab implementation)
   Alexander A. Auer      : GIAO ZORA, VPT2
   Ute Becker             : Parallelization
   Giovanni Bistoni       : ED, misc. LED, open-shell LED, HFLD
   Martin Brehm           : Molecular dynamics
   Dmytro Bykov           : SCF Hessian
   Vijay G. Chilkuri      : MRCI spin determinant printing, contributions to CSF-ICE
   Dipayan Datta          : RHF DLPNO-CCSD density
   Achintya Kumar Dutta   : EOM-CC, STEOM-CC
   Dmitry Ganyushin       : Spin-Orbit,Spin-Spin,Magnetic field MRCI
   Miquel Garcia          : C-PCM Hessian, Gaussian charge scheme
   Yang Guo               : DLPNO-NEVPT2, CIM, IAO-localization
   Andreas Hansen         : Spin unrestricted coupled pair/coupled cluster methods
   Benjamin Helmich-Paris : CASSCF linear response (MC-RPA)
   Lee Huntington         : MR-EOM, pCC
   Robert Izsak           : Overlap fitted RIJCOSX, COSX-SCS-MP3, EOM
   Christian Kollmar      : KDIIS, OOCD, Brueckner-CCSD(T), CCSD density
   Simone Kossmann        : Meta GGA functionals, TD-DFT gradient, OOMP2, MP2 Hessian
   Martin Krupicka        : AUTO-CI
   Lucas Lang             : DCDCAS
   Dagmar Lenk            : GEPOL surface, SMD
   Dimitrios Liakos       : Extrapolation schemes; Compound Job, initial MDCI parallelization
   Dimitrios Manganas     : Further ROCIS development; embedding schemes
   Dimitrios Pantazis     : SARC Basis sets
   Taras Petrenko         : DFT Hessian,TD-DFT gradient, ASA, ECA, R-Raman, ABS, FL, XAS/XES, NRVS
   Peter Pinski           : DLPNO-MP2, DLPNO-MP2 Gradient
   Christoph Reimann      : Effective Core Potentials
   Marius Retegan         : Local ZFS, SOC
   Christoph Riplinger    : Optimizer, TS searches, QM/MM, DLPNO-CCSD(T), (RO)-DLPNO pert. Triples
   Tobias Risthaus        : Range-separated hybrids, TD-DFT gradient, RPA, STAB
   Michael Roemelt        : Original ROCIS implementation
   Masaaki Saitow         : Open-shell DLPNO-CCSD energy and density
   Barbara Sandhoefer     : DKH picture change effects
   Avijit Sen             : IP-ROCIS
   Kantharuban Sivalingam : CASSCF convergence, NEVPT2, FIC-MRCI
   Bernardo de Souza      : ESD, SOC TD-DFT
   Georgi Stoychev        : AutoAux, RI-MP2 NMR
   Willem Van den Heuvel  : Paramagnetic NMR
   Boris Wezisla          : Elementary symmetry handling
   Frank Wennmohs         : Technical directorship


 We gratefully acknowledge several colleagues who have allowed us to
 interface, adapt or use parts of their codes:
   Stefan Grimme, W. Hujo, H. Kruse,             : VdW corrections, initial TS optimization,
                  C. Bannwarth                     DFT functionals, gCP, sTDA/sTD-DF
   Ed Valeev, F. Pavosevic, A. Kumar             : LibInt (2-el integral package), F12 methods
   Garnet Chan, S. Sharma, J. Yang, R. Olivares  : DMRG
   Ulf Ekstrom                                   : XCFun DFT Library
   Mihaly Kallay                                 : mrcc  (arbitrary order and MRCC methods)
   Andreas Klamt, Michael Diedenhofen            : otool_cosmo (COSMO solvation model)
   Jiri Pittner, Ondrej Demel                    : Mk-CCSD
   Frank Weinhold                                : gennbo (NPA and NBO analysis)
   Christopher J. Cramer and Donald G. Truhlar   : smd solvation model
   Lars Goerigk                                  : TD-DFT with DH, B97 family of functionals
   V. Asgeirsson, H. Jonsson                     : NEB implementation
   FAccTs GmbH                                   : IRC, NEB, NEB-TS, Multilevel, MM, QM/MM, CI optimization
   S Lehtola, MJT Oliveira, MAL Marques          : LibXC Library


 Your calculation uses the libint2 library for the computation of 2-el integrals
 For citations please refer to: http://libint.valeyev.net

 Your ORCA version has been built with support for libXC version: 4.2.3
 For citations please refer to: https://tddft.org/programs/libxc/

 This ORCA versions uses:
   CBLAS   interface :  Fast vector & matrix operations
   LAPACKE interface :  Fast linear algebra routines
   SCALAPACK package :  Parallel linear algebra routines


----- Orbital basis set information -----
Your calculation utilizes the basis: def2-SVP
   F. Weigend and R. Ahlrichs, Phys. Chem. Chem. Phys. 7, 3297 (2005).

================================================================================
                                        WARNINGS
                       Please study these warnings very carefully!
================================================================================


WARNING: Geometry Optimization
  ===> : Switching off AutoStart
         For restart on a previous wavefunction, please use MOREAD

INFO   : the flag for use of LIBINT has been found!

================================================================================
                                       INPUT FILE
================================================================================
NAME = temp.in
|  1>  ! PBE0 def2-SVP tightscf OPT FREQ                                                                   
|  2>  * xyz  0  1                                                                                         
|  3> C      2.37161840   -0.20839397   -0.00000001
|  4> O      1.18123883   -0.06995203   -0.00000001
|  5> H      3.18307819    0.52347745    0.00000001
|  6> H      2.96596183   -1.07917569   -0.00000000
|  7>  *                                                                                                   
|  8> 
|  9>                          ****END OF INPUT****
================================================================================

                       *****************************
                       * Geometry Optimization Run *
                       *****************************

Geometry optimization settings:
Update method            Update   .... BFGS
Choice of coordinates    CoordSys .... Z-matrix Internals
Initial Hessian          InHess   .... Almoef's Model

Convergence Tolerances:
Energy Change            TolE     ....  5.0000e-06 Eh
Max. Gradient            TolMAXG  ....  3.0000e-04 Eh/bohr
RMS Gradient             TolRMSG  ....  1.0000e-04 Eh/bohr
Max. Displacement        TolMAXD  ....  4.0000e-03 bohr
RMS Displacement         TolRMSD  ....  2.0000e-03 bohr
Strict Convergence                ....  False
------------------------------------------------------------------------------
                        ORCA OPTIMIZATION COORDINATE SETUP
------------------------------------------------------------------------------

The optimization will be done in new redundant internal coordinates
Making redundant internal coordinates   ...  (new redundants) done
Evaluating the initial hessian          ...  (Almloef) done
Evaluating the coordinates              ...  done
Calculating the B-matrix                .... done
Calculating the G-matrix                .... done
Diagonalizing the G-matrix              .... done
The first mode is                       ....    1
The number of degrees of freedom        ....    6

    -----------------------------------------------------------------
                    Redundant Internal Coordinates


    -----------------------------------------------------------------
         Definition                    Initial Value    Approx d2E/dq
    -----------------------------------------------------------------
      1. B(O   1,C   0)                  1.1984         1.131244   
      2. B(H   2,C   0)                  1.0928         0.356480   
      3. B(H   3,C   0)                  1.0543         0.410595   
      4. A(O   1,C   0,H   3)          130.9488         0.397941   
      5. A(H   2,C   0,H   3)           97.7328         0.296449   
      6. A(O   1,C   0,H   2)          131.3183         0.388215   
      7. I(O   1,H   3,H   2,C   0)      0.0000         0.115905   
    -----------------------------------------------------------------

Number of atoms                         .... 4
Number of degrees of freedom            .... 7

         *************************************************************
         *                GEOMETRY OPTIMIZATION CYCLE   1            *
         *************************************************************
---------------------------------
CARTESIAN COORDINATES (ANGSTROEM)
---------------------------------
  C      2.371618   -0.208394   -0.000000
  O      1.181239   -0.069952   -0.000000
  H      3.183078    0.523477    0.000000
  H      2.965962   -1.079176   -0.000000

----------------------------
CARTESIAN COORDINATES (A.U.)
----------------------------
  NO LB      ZA    FRAG     MASS         X           Y           Z
   0 C     6.0000    0    12.011    4.481709   -0.393808   -0.000000
   1 O     8.0000    0    15.999    2.232218   -0.132190   -0.000000
   2 H     1.0000    0     1.008    6.015146    0.989229    0.000000
   3 H     1.0000    0     1.008    5.604856   -2.039347   -0.000000

--------------------------------
INTERNAL COORDINATES (ANGSTROEM)
--------------------------------
 C      0   0   0     0.000000000000     0.00000000     0.00000000
 O      1   0   0     1.198402975390     0.00000000     0.00000000
 H      1   2   0     1.092750093205   131.31834735     0.00000000
 H      1   2   3     1.054279335219   130.94883900   179.99999774

---------------------------
INTERNAL COORDINATES (A.U.)
---------------------------
 C      0   0   0     0.000000000000     0.00000000     0.00000000
 O      1   0   0     2.264653421564     0.00000000     0.00000000
 H      1   2   0     2.064998408974   131.31834735     0.00000000
 H      1   2   3     1.992299212217   130.94883900   179.99999774

---------------------
BASIS SET INFORMATION
---------------------
There are 3 groups of distinct atoms

 Group   1 Type C   : 7s4p1d contracted to 3s2p1d pattern {511/31/1}
 Group   2 Type O   : 7s4p1d contracted to 3s2p1d pattern {511/31/1}
 Group   3 Type H   : 4s1p contracted to 2s1p pattern {31/1}

Atom   0C    basis set group =>   1
Atom   1O    basis set group =>   2
Atom   2H    basis set group =>   3
Atom   3H    basis set group =>   3
------------------------------------------------------------------------------
                           ORCA GTO INTEGRAL CALCULATION
------------------------------------------------------------------------------

                         BASIS SET STATISTICS AND STARTUP INFO

 # of primitive gaussian shells          ...   34
 # of primitive gaussian functions       ...   62
 # of contracted shells                  ...   18
 # of contracted basis functions         ...   38
 Highest angular momentum                ...    2
 Maximum contraction depth               ...    5
 Integral package used                   ... LIBINT
 Integral threshhold            Thresh   ...  2.500e-11
 Primitive cut-off              TCut     ...  2.500e-12


------------------------------ INTEGRAL EVALUATION ----------------------------


 * One electron integrals 
 Pre-screening matrix                    ... done
 Shell pair data                         ... done (   0.000 sec)

-------------------------------------------------------------------------------
                                 ORCA SCF
-------------------------------------------------------------------------------

------------
SCF SETTINGS
------------
Hamiltonian:
 Density Functional     Method          .... DFT(GTOs)
 Exchange Functional    Exchange        .... PBE
   PBE kappa parameter   XKappa         ....  0.804000
   PBE mue parameter    XMuePBE         ....  0.219520
 Correlation Functional Correlation     .... PBE
   PBE beta parameter  CBetaPBE         ....  0.066725
 LDA part of GGA corr.  LDAOpt          .... PW91-LDA
 Gradients option       PostSCFGGA      .... off
 Hybrid DFT is turned on
   Fraction HF Exchange ScalHFX         ....  0.250000
   Scaling of DF-GGA-X  ScalDFX         ....  0.750000
   Scaling of DF-GGA-C  ScalDFC         ....  1.000000
   Scaling of DF-LDA-C  ScalLDAC        ....  1.000000
   Perturbative correction              ....  0.000000
   Density functional embedding theory  .... OFF
   NL short-range parameter             ....  6.900000


General Settings:
 Integral files         IntName         .... temp
 Hartree-Fock type      HFTyp           .... RHF
 Total Charge           Charge          ....    0
 Multiplicity           Mult            ....    1
 Number of Electrons    NEL             ....   16
 Basis Dimension        Dim             ....   38
 Nuclear Repulsion      ENuc            ....     31.5319838847 Eh

Convergence Acceleration:
 DIIS                   CNVDIIS         .... on
   Start iteration      DIISMaxIt       ....    12
   Startup error        DIISStart       ....  0.200000
   # of expansion vecs  DIISMaxEq       ....     5
   Bias factor          DIISBfac        ....   1.050
   Max. coefficient     DIISMaxC        ....  10.000
 Newton-Raphson         CNVNR           .... off
 SOSCF                  CNVSOSCF        .... on
   Start iteration      SOSCFMaxIt      ....   150
   Startup grad/error   SOSCFStart      ....  0.003300
 Level Shifting         CNVShift        .... on
   Level shift para.    LevelShift      ....    0.2500
   Turn off err/grad.   ShiftErr        ....    0.0010
 Zerner damping         CNVZerner       .... off
 Static damping         CNVDamp         .... on
   Fraction old density DampFac         ....    0.7000
   Max. Damping (<1)    DampMax         ....    0.9800
   Min. Damping (>=0)   DampMin         ....    0.0000
   Turn off err/grad.   DampErr         ....    0.1000
 Fernandez-Rico         CNVRico         .... off

SCF Procedure:
 Maximum # iterations   MaxIter         ....   125
 SCF integral mode      SCFMode         .... Direct
   Integral package                     .... LIBINT
 Reset frequency        DirectResetFreq ....    20
 Integral Threshold     Thresh          ....  2.500e-11 Eh
 Primitive CutOff       TCut            ....  2.500e-12 Eh

Convergence Tolerance:
 Convergence Check Mode ConvCheckMode   .... Total+1el-Energy
 Convergence forced     ConvForced      .... 0
 Energy Change          TolE            ....  1.000e-08 Eh
 1-El. energy change                    ....  1.000e-05 Eh
 Orbital Gradient       TolG            ....  1.000e-05
 Orbital Rotation angle TolX            ....  1.000e-05
 DIIS Error             TolErr          ....  5.000e-07


Diagonalization of the overlap matrix:
Smallest eigenvalue                        ... 1.957e-02
Time for diagonalization                   ...    0.000 sec
Threshold for overlap eigenvalues          ... 1.000e-08
Number of eigenvalues below threshold      ... 0
Time for construction of square roots      ...    0.001 sec
Total time needed                          ...    0.001 sec

-------------------
DFT GRID GENERATION
-------------------

General Integration Accuracy     IntAcc      ...  4.340
Radial Grid Type                 RadialGrid  ... Gauss-Chebyshev
Angular Grid (max. acc.)         AngularGrid ... Lebedev-110
Angular grid pruning method      GridPruning ... 3 (G Style)
Weight generation scheme         WeightScheme... Becke
Basis function cutoff            BFCut       ...    1.0000e-11
Integration weight cutoff        WCut        ...    1.0000e-14
Grids for H and He will be reduced by one unit

# of grid points (after initial pruning)     ...   4960 (   0.0 sec)
# of grid points (after weights+screening)   ...   4876 (   0.0 sec)
nearest neighbour list constructed           ...    0.0 sec
Grid point re-assignment to atoms done       ...    0.0 sec
Grid point division into batches done        ...    0.0 sec
Reduced shell lists constructed in    0.0 sec

Total number of grid points                  ...     4876
Total number of batches                      ...       79
Average number of points per batch           ...       61
Average number of grid points per atom       ...     1219
Average number of shells per batch           ...    15.94 (88.54%)
Average number of basis functions per batch  ...    33.91 (89.24%)
Average number of large shells per batch     ...    14.89 (93.41%)
Average number of large basis fcns per batch ...    31.59 (93.14%)
Maximum spatial batch extension              ...  19.63, 25.60, 25.65 au
Average spatial batch extension              ...   5.07,  4.71,  5.96 au

Time for grid setup =    0.016 sec

------------------------------
INITIAL GUESS: MODEL POTENTIAL
------------------------------
Loading Hartree-Fock densities                     ... done
Calculating cut-offs                               ... done
Setting up the integral package                    ... done
Initializing the effective Hamiltonian             ... done
Starting the Coulomb interaction                   ... done (   0.0 sec)
Reading the grid                                   ... done
Mapping shells                                     ... done
Starting the XC term evaluation                    ... done (   0.0 sec)
  promolecular density results
     # of electrons  =     15.998134029
     EX              =    -13.815484420
     EC              =     -0.512041402
     EX+EC           =    -14.327525822
Transforming the Hamiltonian                       ... done (   0.0 sec)
Diagonalizing the Hamiltonian                      ... done (   0.0 sec)
Back transforming the eigenvectors                 ... done (   0.0 sec)
Now organizing SCF variables                       ... done
                      ------------------
                      INITIAL GUESS DONE (   0.1 sec)
                      ------------------
--------------
SCF ITERATIONS
--------------
ITER       Energy         Delta-E        Max-DP      RMS-DP      [F,P]     Damp
               ***  Starting incremental Fock matrix formation  ***
  0   -114.2123910330   0.000000000000 0.07861122  0.00509118  0.2314263 0.7000
  1   -114.2413744627  -0.028983429679 0.04710079  0.00310372  0.0948973 0.7000
                               ***Turning on DIIS***
  2   -114.2500757609  -0.008701298256 0.05174794  0.00428035  0.0301774 0.0000
  3   -114.2678890392  -0.017813278218 0.03298795  0.00235093  0.0493603 0.0000
  4   -114.2701387404  -0.002249701250 0.01131466  0.00071808  0.0195195 0.0000
  5   -114.2705296552  -0.000390914782 0.00134034  0.00012132  0.0036582 0.0000
                      *** Initiating the SOSCF procedure ***
                           *** Shutting down DIIS ***
                      *** Re-Reading the Fockian *** 
                      *** Removing any level shift *** 
ITER      Energy       Delta-E        Grad      Rot      Max-DP    RMS-DP
  6   -114.27054194  -0.0000122817  0.000326  0.000326  0.000634  0.000044
               *** Restarting incremental Fock matrix formation ***
  7   -114.27054345  -0.0000015122  0.000197  0.000517  0.000583  0.000029
  8   -114.27054331   0.0000001358  0.000267  0.000205  0.000252  0.000020
  9   -114.27054360  -0.0000002825  0.000012  0.000015  0.000043  0.000003
 10   -114.27054360  -0.0000000006  0.000010  0.000006  0.000021  0.000001
                 **** Energy Check signals convergence ****
              ***Rediagonalizing the Fockian in SOSCF/NRSCF***

               *****************************************************
               *                     SUCCESS                       *
               *           SCF CONVERGED AFTER  11 CYCLES          *
               *****************************************************

Setting up the final grid:

General Integration Accuracy     IntAcc      ...  4.670
Radial Grid Type                 RadialGrid  ... Gauss-Chebyshev
Angular Grid (max. acc.)         AngularGrid ... Lebedev-302
Angular grid pruning method      GridPruning ... 3 (G Style)
Weight generation scheme         WeightScheme... Becke
Basis function cutoff            BFCut       ...    1.0000e-11
Integration weight cutoff        WCut        ...    1.0000e-14
Grids for H and He will be reduced by one unit

# of grid points (after initial pruning)     ...  19212 (   0.0 sec)
# of grid points (after weights+screening)   ...  18867 (   0.0 sec)
nearest neighbour list constructed           ...    0.0 sec
Grid point re-assignment to atoms done       ...    0.0 sec
Grid point division into batches done        ...    0.1 sec
Reduced shell lists constructed in    0.1 sec

Total number of grid points                  ...    18867
Total number of batches                      ...      297
Average number of points per batch           ...       63
Average number of grid points per atom       ...     4717
Average number of shells per batch           ...    14.67 (81.52%)
Average number of basis functions per batch  ...    31.25 (82.24%)
Average number of large shells per batch     ...    13.47 (91.77%)
Average number of large basis fcns per batch ...    28.47 (91.09%)
Maximum spatial batch extension              ...  17.33, 17.47, 19.22 au
Average spatial batch extension              ...   3.34,  3.25,  3.71 au

Final grid set up in    0.1 sec
Final integration                            ... done (   0.0 sec)
Change in XC energy                          ...     0.000015181
Integrated number of electrons               ...    15.999995590
Previous integrated no of electrons          ...    16.000080697

----------------
TOTAL SCF ENERGY
----------------

Total Energy       :         -114.27052842 Eh           -3109.45916 eV

Components:
Nuclear Repulsion  :           31.53198388 Eh             858.02890 eV
Electronic Energy  :         -145.80251230 Eh           -3967.48806 eV
One Electron Energy:         -217.70626259 Eh           -5924.08858 eV
Two Electron Energy:           71.90375029 Eh            1956.60052 eV

Virial components:
Potential Energy   :         -227.78173118 Eh           -6198.25602 eV
Kinetic Energy     :          113.51120276 Eh            3088.79686 eV
Virial Ratio       :            2.00668943


DFT components:
N(Alpha)           :        7.999997795014 electrons
N(Beta)            :        7.999997795014 electrons
N(Total)           :       15.999995590029 electrons
E(X)               :      -10.546955885339 Eh       
E(C)               :       -0.521374198619 Eh       
E(XC)              :      -11.068330083958 Eh       
DFET-embed. en.    :        0.000000000000 Eh       

---------------
SCF CONVERGENCE
---------------

  Last Energy change         ...   -7.4877e-10  Tolerance :   1.0000e-08
  Last MAX-Density change    ...    8.9681e-07  Tolerance :   1.0000e-07
  Last RMS-Density change    ...    7.2887e-08  Tolerance :   5.0000e-09
  Last Orbital Gradient      ...    3.8722e-07  Tolerance :   1.0000e-05
  Last Orbital Rotation      ...    5.0595e-07  Tolerance :   1.0000e-05

             **** THE GBW FILE WAS UPDATED (temp.gbw) ****
             **** DENSITY FILE WAS UPDATED (temp.scfp) ****
             **** ENERGY FILE WAS UPDATED (temp.en.tmp) ****
             **** THE GBW FILE WAS UPDATED (temp.gbw) ****
             **** DENSITY FILE WAS UPDATED (temp.scfp) ****
----------------
ORBITAL ENERGIES
----------------

  NO   OCC          E(Eh)            E(eV) 
   0   2.0000     -19.234117      -523.3869 
   1   2.0000     -10.330215      -281.0994 
   2   2.0000      -1.083390       -29.4805 
   3   2.0000      -0.674217       -18.3464 
   4   2.0000      -0.496649       -13.5145 
   5   2.0000      -0.477770       -13.0008 
   6   2.0000      -0.421383       -11.4664 
   7   2.0000      -0.280711        -7.6385 
   8   0.0000      -0.040104        -1.0913 
   9   0.0000       0.084947         2.3115 
  10   0.0000       0.159262         4.3337 
  11   0.0000       0.197878         5.3845 
  12   0.0000       0.473522        12.8852 
  13   0.0000       0.499872        13.6022 
  14   0.0000       0.554107        15.0780 
  15   0.0000       0.614186        16.7129 
  16   0.0000       0.643791        17.5185 
  17   0.0000       0.700052        19.0494 
  18   0.0000       0.898288        24.4437 
  19   0.0000       1.003384        27.3035 
  20   0.0000       1.107118        30.1262 
  21   0.0000       1.208780        32.8926 
  22   0.0000       1.278419        34.7875 
  23   0.0000       1.387646        37.7598 
  24   0.0000       1.584164        43.1073 
  25   0.0000       1.717928        46.7472 
  26   0.0000       1.810383        49.2630 
  27   0.0000       1.846091        50.2347 
  28   0.0000       2.016167        54.8627 
  29   0.0000       2.050662        55.8013 
  30   0.0000       2.528034        68.7913 
  31   0.0000       2.674521        72.7774 
  32   0.0000       2.695731        73.3546 
  33   0.0000       2.785793        75.8053 
  34   0.0000       2.860057        77.8261 
  35   0.0000       3.168125        86.2091 
  36   0.0000       3.536707        96.2387 
  37   0.0000       3.613586        98.3307 

                    ********************************
                    * MULLIKEN POPULATION ANALYSIS *
                    ********************************

-----------------------
MULLIKEN ATOMIC CHARGES
-----------------------
   0 C :    0.202530
   1 O :   -0.218634
   2 H :    0.009644
   3 H :    0.006460
Sum of atomic charges:    0.0000000

--------------------------------
MULLIKEN REDUCED ORBITAL CHARGES
--------------------------------
  0 C s       :     3.096987  s :     3.096987
      pz      :     0.725429  p :     2.619178
      px      :     0.871946
      py      :     1.021803
      dz2     :     0.003289  d :     0.081305
      dxz     :     0.014695
      dyz     :     0.000186
      dx2y2   :     0.016274
      dxy     :     0.046862
  1 O s       :     3.798863  s :     3.798863
      pz      :     1.248143  p :     4.400122
      px      :     1.337822
      py      :     1.814157
      dz2     :     0.001991  d :     0.019650
      dxz     :     0.006496
      dyz     :     0.000088
      dx2y2   :     0.006309
      dxy     :     0.004766
  2 H s       :     0.967296  s :     0.967296
      pz      :     0.002299  p :     0.023060
      px      :     0.009674
      py      :     0.011086
  3 H s       :     0.968806  s :     0.968806
      pz      :     0.002665  p :     0.024734
      px      :     0.007382
      py      :     0.014688


                     *******************************
                     * LOEWDIN POPULATION ANALYSIS *
                     *******************************

----------------------
LOEWDIN ATOMIC CHARGES
----------------------
   0 C :    0.147020
   1 O :   -0.109152
   2 H :   -0.016565
   3 H :   -0.021303

-------------------------------
LOEWDIN REDUCED ORBITAL CHARGES
-------------------------------
  0 C s       :     2.877731  s :     2.877731
      pz      :     0.716911  p :     2.781235
      px      :     0.982375
      py      :     1.081949
      dz2     :     0.010285  d :     0.194014
      dxz     :     0.025746
      dyz     :     0.000363
      dx2y2   :     0.042040
      dxy     :     0.115579
  1 O s       :     3.559990  s :     3.559990
      pz      :     1.231946  p :     4.516497
      px      :     1.482059
      py      :     1.802491
      dz2     :     0.004321  d :     0.032665
      dxz     :     0.007422
      dyz     :     0.000101
      dx2y2   :     0.012863
      dxy     :     0.007958
  2 H s       :     0.946205  s :     0.946205
      pz      :     0.007998  p :     0.070360
      px      :     0.030665
      py      :     0.031697
  3 H s       :     0.944705  s :     0.944705
      pz      :     0.009512  p :     0.076597
      px      :     0.023501
      py      :     0.043584


                      *****************************
                      * MAYER POPULATION ANALYSIS *
                      *****************************

  NA   - Mulliken gross atomic population
  ZA   - Total nuclear charge
  QA   - Mulliken gross atomic charge
  VA   - Mayer's total valence
  BVA  - Mayer's bonded valence
  FA   - Mayer's free valence

  ATOM       NA         ZA         QA         VA         BVA        FA
  0 C      5.7975     6.0000     0.2025     3.9884     3.9884     0.0000
  1 O      8.2186     8.0000    -0.2186     2.2132     2.2132     0.0000
  2 H      0.9904     1.0000     0.0096     0.9535     0.9535     0.0000
  3 H      0.9935     1.0000     0.0065     0.9519     0.9519    -0.0000

  Mayer bond orders larger than 0.100000
B(  0-C ,  1-O ) :   2.1206 B(  0-C ,  2-H ) :   0.9303 B(  0-C ,  3-H ) :   0.9375 


-------
TIMINGS
-------

Total SCF time: 0 days 0 hours 0 min 3 sec 

Total time                  ....       3.612 sec
Sum of individual times     ....       3.344 sec  ( 92.6%)

Fock matrix formation       ....       3.111 sec  ( 86.1%)
  XC integration            ....       0.325 sec  ( 10.4% of F)
    Basis function eval.    ....       0.107 sec  ( 33.1% of XC)
    Density eval.           ....       0.063 sec  ( 19.4% of XC)
    XC-Functional eval.     ....       0.064 sec  ( 19.8% of XC)
    XC-Potential eval.      ....       0.048 sec  ( 14.8% of XC)
Diagonalization             ....       0.002 sec  (  0.1%)
Density matrix formation    ....       0.000 sec  (  0.0%)
Population analysis         ....       0.002 sec  (  0.0%)
Initial guess               ....       0.107 sec  (  3.0%)
Orbital Transformation      ....       0.000 sec  (  0.0%)
Orbital Orthonormalization  ....       0.000 sec  (  0.0%)
DIIS solution               ....       0.002 sec  (  0.1%)
SOSCF solution              ....       0.002 sec  (  0.0%)
Grid generation             ....       0.117 sec  (  3.2%)

-------------------------   --------------------
FINAL SINGLE POINT ENERGY      -114.270528415823
-------------------------   --------------------

------------------------------------------------------------------------------
                         ORCA SCF GRADIENT CALCULATION
------------------------------------------------------------------------------

Gradient of the Kohn-Sham DFT energy:
Kohn-Sham wavefunction type      ... RKS
Hartree-Fock exchange scaling    ...    0.250
Number of operators              ...    1
Number of atoms                  ...    4
Basis set dimensions             ...   38
Integral neglect threshold       ... 2.5e-11
Integral primitive cutoff        ... 2.5e-12

Nuclear repulsion gradient       ... done
One Electron Gradient            ... done
Pre-screening matrix             ... done
Starting the two electron gradient:
Two electron gradient done
Exchange-correlation gradient    ... done

------------------
CARTESIAN GRADIENT
------------------

   1   C   :    0.007296504   -0.021249894   -0.000000003
   2   O   :   -0.010725318    0.000365633    0.000000001
   3   H   :    0.004839033   -0.040260308    0.000000001
   4   H   :   -0.001410219    0.061144569    0.000000001

Difference to translation invariance:
           :   -0.0000000000    0.0000000000   -0.0000000000

Norm of the cartesian gradient     ...    0.0774914114
RMS gradient                       ...    0.0223698436
MAX gradient                       ...    0.0611445694

-------
TIMINGS
-------

Total SCF gradient time            ...        0.423 sec

One electron gradient       ....       0.003 sec  (  0.8%)
Prescreening matrices       ....       0.009 sec  (  2.2%)
Two electron gradient       ....       0.090 sec  ( 21.2%)
XC gradient                 ....       0.199 sec  ( 47.0%)
------------------------------------------------------------------------------
                         ORCA GEOMETRY RELAXATION STEP
------------------------------------------------------------------------------

Reading the OPT-File                    .... done
Getting information on internals        .... done
Copying old internal coords+grads       .... done
Making the new internal coordinates     .... (new redundants).... done
Validating the new internal coordinates .... (new redundants).... done
Calculating the B-matrix                .... done
Calculating the G,G- and P matrices     .... done
Transforming gradient to internals      .... done
Projecting the internal gradient        .... done
Number of atoms                         ....   4
Number of internal coordinates          ....   7
Current Energy                          ....  -114.270528416 Eh
Current gradient norm                   ....     0.077491411 Eh/bohr
Maximum allowed component of the step   ....  0.300
Current trust radius                    ....  0.300
Evaluating the initial hessian          ....  (Almloef) done
Projecting the Hessian                  .... done
Forming the augmented Hessian           .... done
Diagonalizing the augmented Hessian     .... done
Last element of RFO vector              ....  0.978754652
Lowest eigenvalues of augmented Hessian:
 -0.016505376  0.115904749  0.336137467  0.358260587  0.393202432
Length of the computed step             ....  0.209485543
The final length of the internal step   ....  0.209485543
Converting the step to cartesian space:
 Initial RMS(Int)=    0.0791780929
Transforming coordinates:
 Iter   0:  RMS(Cart)=    0.0657688135 RMS(Int)=    0.0785697516
 Iter   1:  RMS(Cart)=    0.0021025919 RMS(Int)=    0.0033600880
 Iter   2:  RMS(Cart)=    0.0001382368 RMS(Int)=    0.0002071399
 Iter   3:  RMS(Cart)=    0.0000079413 RMS(Int)=    0.0000097315
 Iter   4:  RMS(Cart)=    0.0000005391 RMS(Int)=    0.0000009002
 Iter   5:  RMS(Cart)=    0.0000000344 RMS(Int)=    0.0000000454
done
Storing new coordinates                 .... done

                                .--------------------.
          ----------------------|Geometry convergence|-------------------------
          Item                value                   Tolerance       Converged
          ---------------------------------------------------------------------
          RMS gradient        0.0300515836            0.0001000000      NO
          MAX gradient        0.0512967620            0.0003000000      NO
          RMS step            0.0791780929            0.0020000000      NO
          MAX step            0.1301917762            0.0040000000      NO
          ........................................................
          Max(Bonds)      0.0636      Max(Angles)    7.46
          Max(Dihed)        0.00      Max(Improp)    0.00
          ---------------------------------------------------------------------

The optimization has not yet converged - more geometry cycles are needed


    ---------------------------------------------------------------------------
                         Redundant Internal Coordinates
                            (Angstroem and degrees)

        Definition                    Value    dE/dq     Step     New-Value
    ----------------------------------------------------------------------------
     1. B(O   1,C   0)                1.1984  0.010696 -0.0049    1.1935   
     2. B(H   2,C   0)                1.0928 -0.023371  0.0332    1.1259   
     3. B(H   3,C   0)                1.0543 -0.051297  0.0636    1.1178   
     4. A(O   1,C   0,H   3)          130.95  0.021453   -3.54    127.40   
     5. A(H   2,C   0,H   3)           97.73 -0.044927    7.46    105.19   
     6. A(O   1,C   0,H   2)          131.32  0.023474   -3.92    127.40   
     7. I(O   1,H   3,H   2,C   0)      0.00  0.000000   -0.00     -0.00   
    ----------------------------------------------------------------------------

         *************************************************************
         *                GEOMETRY OPTIMIZATION CYCLE   2            *
         *************************************************************
---------------------------------
CARTESIAN COORDINATES (ANGSTROEM)
---------------------------------
  C      2.383221   -0.205084   -0.000000
  O      1.198173   -0.063540   -0.000000
  H      3.168366    0.601897    0.000000
  H      2.952137   -1.167317   -0.000000

----------------------------
CARTESIAN COORDINATES (A.U.)
----------------------------
  NO LB      ZA    FRAG     MASS         X           Y           Z
   0 C     6.0000    0    12.011    4.503636   -0.387552   -0.000000
   1 O     8.0000    0    15.999    2.264218   -0.120073   -0.000000
   2 H     1.0000    0     1.008    5.987344    1.137420    0.000000
   3 H     1.0000    0     1.008    5.578731   -2.205909   -0.000000

--------------------------------
INTERNAL COORDINATES (ANGSTROEM)
--------------------------------
 C      0   0   0     0.000000000000     0.00000000     0.00000000
 O      1   0   0     1.193471668113     0.00000000     0.00000000
 H      1   2   0     1.125908641807   127.40302656     0.00000000
 H      1   2   3     1.117836074516   127.40472084   180.00000085

---------------------------
INTERNAL COORDINATES (A.U.)
---------------------------
 C      0   0   0     0.000000000000     0.00000000     0.00000000
 O      1   0   0     2.255334601328     0.00000000     0.00000000
 H      1   2   0     2.127658984831   127.40302656     0.00000000
 H      1   2   3     2.112404043452   127.40472084   180.00000085


Diagonalization of the overlap matrix:
Smallest eigenvalue                        ... 1.914e-02
Time for diagonalization                   ...    0.000 sec
Threshold for overlap eigenvalues          ... 1.000e-08
Number of eigenvalues below threshold      ... 0
Time for construction of square roots      ...    0.000 sec
Total time needed                          ...    0.001 sec

-------------------
DFT GRID GENERATION
-------------------

General Integration Accuracy     IntAcc      ...  4.340
Radial Grid Type                 RadialGrid  ... Gauss-Chebyshev
Angular Grid (max. acc.)         AngularGrid ... Lebedev-110
Angular grid pruning method      GridPruning ... 3 (G Style)
Weight generation scheme         WeightScheme... Becke
Basis function cutoff            BFCut       ...    1.0000e-11
Integration weight cutoff        WCut        ...    1.0000e-14
Grids for H and He will be reduced by one unit

# of grid points (after initial pruning)     ...   4960 (   0.0 sec)
# of grid points (after weights+screening)   ...   4876 (   0.0 sec)
nearest neighbour list constructed           ...    0.0 sec
Grid point re-assignment to atoms done       ...    0.0 sec
Grid point division into batches done        ...    0.0 sec
Reduced shell lists constructed in    0.0 sec

Total number of grid points                  ...     4876
Total number of batches                      ...       78
Average number of points per batch           ...       62
Average number of grid points per atom       ...     1219
Average number of shells per batch           ...    15.92 (88.47%)
Average number of basis functions per batch  ...    33.82 (89.01%)
Average number of large shells per batch     ...    14.89 (93.48%)
Average number of large basis fcns per batch ...    31.42 (92.89%)
Maximum spatial batch extension              ...  19.58, 25.60, 23.60 au
Average spatial batch extension              ...   5.24,  4.71,  5.89 au

Time for grid setup =    0.017 sec

--------------
SCF ITERATIONS
--------------
ITER       Energy         Delta-E        Max-DP      RMS-DP      [F,P]     Damp
               ***  Starting incremental Fock matrix formation  ***
  0   -114.2797803104   0.000000000000 0.00607268  0.00047951  0.0161697 0.7000
                      *** Initiating the SOSCF procedure ***
                      *** Re-Reading the Fockian *** 
                      *** Removing any level shift *** 
ITER      Energy       Delta-E        Grad      Rot      Max-DP    RMS-DP
  1   -114.28011986  -0.0003395454  0.002619  0.002619  0.018002  0.001387
               *** Restarting incremental Fock matrix formation ***
  2   -114.28094629  -0.0008264385  0.001691  0.003932  0.004061  0.000335
  3   -114.28093200   0.0000142977  0.003068  0.002682  0.003217  0.000198
  4   -114.28096481  -0.0000328089  0.000175  0.000175  0.000528  0.000041
  5   -114.28096515  -0.0000003438  0.000058  0.000057  0.000143  0.000011
  6   -114.28096520  -0.0000000534  0.000005  0.000008  0.000017  0.000001
  7   -114.28096520  -0.0000000001  0.000004  0.000003  0.000008  0.000000
                 **** Energy Check signals convergence ****
              ***Rediagonalizing the Fockian in SOSCF/NRSCF***

               *****************************************************
               *                     SUCCESS                       *
               *           SCF CONVERGED AFTER   8 CYCLES          *
               *****************************************************

Setting up the final grid:

General Integration Accuracy     IntAcc      ...  4.670
Radial Grid Type                 RadialGrid  ... Gauss-Chebyshev
Angular Grid (max. acc.)         AngularGrid ... Lebedev-302
Angular grid pruning method      GridPruning ... 3 (G Style)
Weight generation scheme         WeightScheme... Becke
Basis function cutoff            BFCut       ...    1.0000e-11
Integration weight cutoff        WCut        ...    1.0000e-14
Grids for H and He will be reduced by one unit

# of grid points (after initial pruning)     ...  19212 (   0.0 sec)
# of grid points (after weights+screening)   ...  18875 (   0.0 sec)
nearest neighbour list constructed           ...    0.0 sec
Grid point re-assignment to atoms done       ...    0.0 sec
Grid point division into batches done        ...    0.1 sec
Reduced shell lists constructed in    0.1 sec

Total number of grid points                  ...    18875
Total number of batches                      ...      297
Average number of points per batch           ...       63
Average number of grid points per atom       ...     4719
Average number of shells per batch           ...    14.66 (81.43%)
Average number of basis functions per batch  ...    31.19 (82.09%)
Average number of large shells per batch     ...    13.41 (91.51%)
Average number of large basis fcns per batch ...    28.40 (91.04%)
Maximum spatial batch extension              ...  17.85, 16.88, 20.64 au
Average spatial batch extension              ...   3.36,  3.21,  3.70 au

Final grid set up in    0.1 sec
Final integration                            ... done (   0.0 sec)
Change in XC energy                          ...    -0.000041630
Integrated number of electrons               ...    15.999994470
Previous integrated no of electrons          ...    15.999801519
Total Energy       :         -114.28100683 Eh           -3109.74429 eV
  Last Energy change         ...   -1.5258e-10  Tolerance :   1.0000e-08
  Last MAX-Density change    ...    3.4254e-07  Tolerance :   1.0000e-07
             **** THE GBW FILE WAS UPDATED (temp.gbw) ****
             **** DENSITY FILE WAS UPDATED (temp.scfp) ****
             **** ENERGY FILE WAS UPDATED (temp.en.tmp) ****
             **** THE GBW FILE WAS UPDATED (temp.gbw) ****
             **** DENSITY FILE WAS UPDATED (temp.scfp) ****
Total SCF time: 0 days 0 hours 0 min 2 sec 

-------------------------   --------------------
FINAL SINGLE POINT ENERGY      -114.281006833110
-------------------------   --------------------

------------------------------------------------------------------------------
                         ORCA SCF GRADIENT CALCULATION
------------------------------------------------------------------------------

Gradient of the Kohn-Sham DFT energy:
Kohn-Sham wavefunction type      ... RKS
Hartree-Fock exchange scaling    ...    0.250
Number of operators              ...    1
Number of atoms                  ...    4
Basis set dimensions             ...   38
Integral neglect threshold       ... 2.5e-11
Integral primitive cutoff        ... 2.5e-12

Nuclear repulsion gradient       ... done
One Electron Gradient            ... done
Pre-screening matrix             ... done
Starting the two electron gradient:
Two electron gradient done
Exchange-correlation gradient    ... done

------------------
CARTESIAN GRADIENT
------------------

   1   C   :   -0.020453924   -0.000947170    0.000000001
   2   O   :   -0.003697617    0.000365914   -0.000000001
   3   H   :    0.012057412   -0.010874696   -0.000000000
   4   H   :    0.012094129    0.011455952   -0.000000000

Difference to translation invariance:
           :    0.0000000000   -0.0000000000    0.0000000000

Norm of the cartesian gradient     ...    0.0312123919
RMS gradient                       ...    0.0090102414
MAX gradient                       ...    0.0204539244

-------
TIMINGS
-------

Total SCF gradient time            ...        0.807 sec

One electron gradient       ....       0.004 sec  (  0.5%)
Prescreening matrices       ....       0.008 sec  (  1.0%)
Two electron gradient       ....       0.082 sec  ( 10.2%)
XC gradient                 ....       0.603 sec  ( 74.7%)
------------------------------------------------------------------------------
                         ORCA GEOMETRY RELAXATION STEP
------------------------------------------------------------------------------

Reading the OPT-File                    .... done
Getting information on internals        .... done
Copying old internal coords+grads       .... done
Making the new internal coordinates     .... (new redundants).... done
Validating the new internal coordinates .... (new redundants).... done
Calculating the B-matrix                .... done
Calculating the G,G- and P matrices     .... done
Transforming gradient to internals      .... done
Projecting the internal gradient        .... done
Number of atoms                         ....   4
Number of internal coordinates          ....   7
Current Energy                          ....  -114.281006833 Eh
Current gradient norm                   ....     0.031212392 Eh/bohr
Maximum allowed component of the step   ....  0.300
Current trust radius                    ....  0.300
Updating the Hessian (BFGS)             .... done
Forming the augmented Hessian           .... done
Diagonalizing the augmented Hessian     .... done
Last element of RFO vector              ....  0.990919930
Lowest eigenvalues of augmented Hessian:
 -0.003856620  0.115904749  0.208333017  0.365037870  0.393136259
Length of the computed step             ....  0.135685344
The final length of the internal step   ....  0.135685344
Converting the step to cartesian space:
 Initial RMS(Int)=    0.0512842397
Transforming coordinates:
 Iter   0:  RMS(Cart)=    0.0415372392 RMS(Int)=    0.0511871121
 Iter   1:  RMS(Cart)=    0.0010985145 RMS(Int)=    0.0017058755
 Iter   2:  RMS(Cart)=    0.0000627847 RMS(Int)=    0.0000754163
 Iter   3:  RMS(Cart)=    0.0000030492 RMS(Int)=    0.0000049132
 Iter   4:  RMS(Cart)=    0.0000001920 RMS(Int)=    0.0000002278
 Iter   5:  RMS(Cart)=    0.0000000086 RMS(Int)=    0.0000000141
done
Storing new coordinates                 .... done

                                .--------------------.
          ----------------------|Geometry convergence|-------------------------
          Item                value                   Tolerance       Converged
          ---------------------------------------------------------------------
          Energy change      -0.0104784173            0.0000050000      NO
          RMS gradient        0.0108068339            0.0001000000      NO
          MAX gradient        0.0229432036            0.0003000000      NO
          RMS step            0.0512842397            0.0020000000      NO
          MAX step            0.1089751665            0.0040000000      NO
          ........................................................
          Max(Bonds)      0.0125      Max(Angles)    6.24
          Max(Dihed)        0.00      Max(Improp)    0.00
          ---------------------------------------------------------------------

The optimization has not yet converged - more geometry cycles are needed


    ---------------------------------------------------------------------------
                         Redundant Internal Coordinates
                            (Angstroem and degrees)

        Definition                    Value    dE/dq     Step     New-Value
    ----------------------------------------------------------------------------
     1. B(O   1,C   0)                1.1935  0.003715 -0.0030    1.1905   
     2. B(H   2,C   0)                1.1259  0.000614  0.0016    1.1275   
     3. B(H   3,C   0)                1.1178 -0.003706  0.0125    1.1303   
     4. A(O   1,C   0,H   3)          127.40  0.011378   -3.05    124.35   
     5. A(H   2,C   0,H   3)          105.19 -0.022943    6.24    111.44   
     6. A(O   1,C   0,H   2)          127.40  0.011565   -3.19    124.21   
     7. I(O   1,H   3,H   2,C   0)     -0.00 -0.000000    0.00      0.00   
    ----------------------------------------------------------------------------

         *************************************************************
         *                GEOMETRY OPTIMIZATION CYCLE   3            *
         *************************************************************
---------------------------------
CARTESIAN COORDINATES (ANGSTROEM)
---------------------------------
  C      2.405331   -0.205906   -0.000000
  O      1.223343   -0.063654   -0.000000
  H      3.146173    0.644096    0.000000
  H      2.927051   -1.208580   -0.000000

----------------------------
CARTESIAN COORDINATES (A.U.)
----------------------------
  NO LB      ZA    FRAG     MASS         X           Y           Z
   0 C     6.0000    0    12.011    4.545416   -0.389106   -0.000000
   1 O     8.0000    0    15.999    2.311783   -0.120288   -0.000000
   2 H     1.0000    0     1.008    5.945405    1.217165    0.000000
   3 H     1.0000    0     1.008    5.531325   -2.283885   -0.000000

--------------------------------
INTERNAL COORDINATES (ANGSTROEM)
--------------------------------
 C      0   0   0     0.000000000000     0.00000000     0.00000000
 O      1   0   0     1.190516917305     0.00000000     0.00000000
 H      1   2   0     1.127541860212   124.21210928     0.00000000
 H      1   2   3     1.130286122409   124.35182094   179.99999915

---------------------------
INTERNAL COORDINATES (A.U.)
---------------------------
 C      0   0   0     0.000000000000     0.00000000     0.00000000
 O      1   0   0     2.249750931506     0.00000000     0.00000000
 H      1   2   0     2.130745320333   124.21210928     0.00000000
 H      1   2   3     2.135931224325   124.35182094   179.99999915


Diagonalization of the overlap matrix:
Smallest eigenvalue                        ... 1.854e-02
Time for diagonalization                   ...    0.001 sec
Threshold for overlap eigenvalues          ... 1.000e-08
Number of eigenvalues below threshold      ... 0
Time for construction of square roots      ...    0.001 sec
Total time needed                          ...    0.002 sec

-------------------
DFT GRID GENERATION
-------------------

General Integration Accuracy     IntAcc      ...  4.340
Radial Grid Type                 RadialGrid  ... Gauss-Chebyshev
Angular Grid (max. acc.)         AngularGrid ... Lebedev-110
Angular grid pruning method      GridPruning ... 3 (G Style)
Weight generation scheme         WeightScheme... Becke
Basis function cutoff            BFCut       ...    1.0000e-11
Integration weight cutoff        WCut        ...    1.0000e-14
Grids for H and He will be reduced by one unit

# of grid points (after initial pruning)     ...   4960 (   0.0 sec)
# of grid points (after weights+screening)   ...   4875 (   0.0 sec)
nearest neighbour list constructed           ...    0.0 sec
Grid point re-assignment to atoms done       ...    0.0 sec
Grid point division into batches done        ...    0.0 sec
Reduced shell lists constructed in    0.0 sec

Total number of grid points                  ...     4875
Total number of batches                      ...       78
Average number of points per batch           ...       62
Average number of grid points per atom       ...     1219
Average number of shells per batch           ...    15.99 (88.82%)
Average number of basis functions per batch  ...    33.99 (89.44%)
Average number of large shells per batch     ...    14.91 (93.27%)
Average number of large basis fcns per batch ...    31.54 (92.81%)
Maximum spatial batch extension              ...  19.48, 25.60, 31.36 au
Average spatial batch extension              ...   5.06,  4.75,  5.88 au

Time for grid setup =    0.022 sec

--------------
SCF ITERATIONS
--------------
ITER       Energy         Delta-E        Max-DP      RMS-DP      [F,P]     Damp
               ***  Starting incremental Fock matrix formation  ***
  0   -114.2831734922   0.000000000000 0.00269046  0.00018222  0.0086268 0.7000
                      *** Initiating the SOSCF procedure ***
                      *** Re-Reading the Fockian *** 
                      *** Removing any level shift *** 
ITER      Energy       Delta-E        Grad      Rot      Max-DP    RMS-DP
  1   -114.28324129  -0.0000677981  0.000824  0.000824  0.007968  0.000542
               *** Restarting incremental Fock matrix formation ***
  2   -114.28341159  -0.0001703045  0.000925  0.001555  0.002336  0.000185
  3   -114.28340891   0.0000026854  0.001489  0.001393  0.001592  0.000092
  4   -114.28341667  -0.0000077560  0.000136  0.000149  0.000423  0.000030
  5   -114.28341674  -0.0000000699  0.000107  0.000063  0.000222  0.000013
  6   -114.28341683  -0.0000000935  0.000004  0.000007  0.000016  0.000001
                 **** Energy Check signals convergence ****
              ***Rediagonalizing the Fockian in SOSCF/NRSCF***

               *****************************************************
               *                     SUCCESS                       *
               *           SCF CONVERGED AFTER   7 CYCLES          *
               *****************************************************

Setting up the final grid:

General Integration Accuracy     IntAcc      ...  4.670
Radial Grid Type                 RadialGrid  ... Gauss-Chebyshev
Angular Grid (max. acc.)         AngularGrid ... Lebedev-302
Angular grid pruning method      GridPruning ... 3 (G Style)
Weight generation scheme         WeightScheme... Becke
Basis function cutoff            BFCut       ...    1.0000e-11
Integration weight cutoff        WCut        ...    1.0000e-14
Grids for H and He will be reduced by one unit

# of grid points (after initial pruning)     ...  19212 (   0.0 sec)
# of grid points (after weights+screening)   ...  18873 (   0.0 sec)
nearest neighbour list constructed           ...    0.0 sec
Grid point re-assignment to atoms done       ...    0.0 sec
Grid point division into batches done        ...    0.1 sec
Reduced shell lists constructed in    0.1 sec

Total number of grid points                  ...    18873
Total number of batches                      ...      297
Average number of points per batch           ...       63
Average number of grid points per atom       ...     4718
Average number of shells per batch           ...    14.68 (81.56%)
Average number of basis functions per batch  ...    31.28 (82.31%)
Average number of large shells per batch     ...    13.46 (91.66%)
Average number of large basis fcns per batch ...    28.50 (91.11%)
Maximum spatial batch extension              ...  17.77, 16.88, 19.58 au
Average spatial batch extension              ...   3.34,  3.13,  3.72 au

Final grid set up in    0.1 sec
Final integration                            ... done (   0.1 sec)
Change in XC energy                          ...    -0.000047367
Integrated number of electrons               ...    16.000000841
Previous integrated no of electrons          ...    15.999620310
Total Energy       :         -114.28346420 Eh           -3109.81116 eV
  Last Energy change         ...   -2.3438e-10  Tolerance :   1.0000e-08
  Last MAX-Density change    ...    4.8866e-06  Tolerance :   1.0000e-07
             **** THE GBW FILE WAS UPDATED (temp.gbw) ****
             **** DENSITY FILE WAS UPDATED (temp.scfp) ****
             **** ENERGY FILE WAS UPDATED (temp.en.tmp) ****
             **** THE GBW FILE WAS UPDATED (temp.gbw) ****
             **** DENSITY FILE WAS UPDATED (temp.scfp) ****
Total SCF time: 0 days 0 hours 0 min 2 sec 

-------------------------   --------------------
FINAL SINGLE POINT ENERGY      -114.283464195946
-------------------------   --------------------

------------------------------------------------------------------------------
                         ORCA SCF GRADIENT CALCULATION
------------------------------------------------------------------------------

Gradient of the Kohn-Sham DFT energy:
Kohn-Sham wavefunction type      ... RKS
Hartree-Fock exchange scaling    ...    0.250
Number of operators              ...    1
Number of atoms                  ...    4
Basis set dimensions             ...   38
Integral neglect threshold       ... 2.5e-11
Integral primitive cutoff        ... 2.5e-12

Nuclear repulsion gradient       ... done
One Electron Gradient            ... done
Pre-screening matrix             ... done
Starting the two electron gradient:
Two electron gradient done
Exchange-correlation gradient    ... done

------------------
CARTESIAN GRADIENT
------------------

   1   C   :   -0.018488540    0.003202239   -0.000000001
   2   O   :    0.005598766   -0.000438812    0.000000000
   3   H   :    0.005927035   -0.001050972    0.000000000
   4   H   :    0.006962740   -0.001712455    0.000000000

Difference to translation invariance:
           :    0.0000000000    0.0000000000   -0.0000000000

Norm of the cartesian gradient     ...    0.0217086554
RMS gradient                       ...    0.0062667490
MAX gradient                       ...    0.0184885402

-------
TIMINGS
-------

Total SCF gradient time            ...        0.470 sec

One electron gradient       ....       0.002 sec  (  0.5%)
Prescreening matrices       ....       0.010 sec  (  2.0%)
Two electron gradient       ....       0.112 sec  ( 23.9%)
XC gradient                 ....       0.216 sec  ( 46.0%)
------------------------------------------------------------------------------
                         ORCA GEOMETRY RELAXATION STEP
------------------------------------------------------------------------------

Reading the OPT-File                    .... done
Getting information on internals        .... done
Copying old internal coords+grads       .... done
Making the new internal coordinates     .... (new redundants).... done
Validating the new internal coordinates .... (new redundants).... done
Calculating the B-matrix                .... done
Calculating the G,G- and P matrices     .... done
Transforming gradient to internals      .... done
Projecting the internal gradient        .... done
Number of atoms                         ....   4
Number of internal coordinates          ....   7
Current Energy                          ....  -114.283464196 Eh
Current gradient norm                   ....     0.021708655 Eh/bohr
Maximum allowed component of the step   ....  0.300
Current trust radius                    ....  0.300
Updating the Hessian (BFGS)             .... done
Forming the augmented Hessian           .... done
Diagonalizing the augmented Hessian     .... done
Last element of RFO vector              ....  0.997952576
Lowest eigenvalues of augmented Hessian:
 -0.000664798  0.115904749  0.143424963  0.364702929  0.393120821
Length of the computed step             ....  0.064089462
The final length of the internal step   ....  0.064089462
Converting the step to cartesian space:
 Initial RMS(Int)=    0.0242235397
Transforming coordinates:
 Iter   0:  RMS(Cart)=    0.0169273010 RMS(Int)=    0.0242402399
 Iter   1:  RMS(Cart)=    0.0002881358 RMS(Int)=    0.0003867812
 Iter   2:  RMS(Cart)=    0.0000056200 RMS(Int)=    0.0000080574
 Iter   3:  RMS(Cart)=    0.0000001958 RMS(Int)=    0.0000002566
 Iter   4:  RMS(Cart)=    0.0000000036 RMS(Int)=    0.0000000054
done
Storing new coordinates                 .... done

                                .--------------------.
          ----------------------|Geometry convergence|-------------------------
          Item                value                   Tolerance       Converged
          ---------------------------------------------------------------------
          Energy change      -0.0024573628            0.0000050000      NO
          RMS gradient        0.0045979972            0.0001000000      NO
          MAX gradient        0.0074987731            0.0003000000      NO
          RMS step            0.0242235397            0.0020000000      NO
          MAX step            0.0514666414            0.0040000000      NO
          ........................................................
          Max(Bonds)      0.0042      Max(Angles)    2.95
          Max(Dihed)        0.00      Max(Improp)    0.00
          ---------------------------------------------------------------------

The optimization has not yet converged - more geometry cycles are needed


    ---------------------------------------------------------------------------
                         Redundant Internal Coordinates
                            (Angstroem and degrees)

        Definition                    Value    dE/dq     Step     New-Value
    ----------------------------------------------------------------------------
     1. B(O   1,C   0)                1.1905 -0.005611  0.0030    1.1935   
     2. B(H   2,C   0)                1.1275  0.003102 -0.0042    1.1233   
     3. B(H   3,C   0)                1.1303  0.004733 -0.0033    1.1270   
     4. A(O   1,C   0,H   3)          124.35  0.004010   -1.50    122.85   
     5. A(H   2,C   0,H   3)          111.44 -0.007499    2.95    114.38   
     6. A(O   1,C   0,H   2)          124.21  0.003489   -1.45    122.76   
     7. I(O   1,H   3,H   2,C   0)      0.00  0.000000   -0.00     -0.00   
    ----------------------------------------------------------------------------

         *************************************************************
         *                GEOMETRY OPTIMIZATION CYCLE   4            *
         *************************************************************
---------------------------------
CARTESIAN COORDINATES (ANGSTROEM)
---------------------------------
  C      2.419141   -0.207217   -0.000000
  O      1.234145   -0.064954   -0.000000
  H      3.135259    0.658229    0.000000
  H      2.913352   -1.220102   -0.000000

----------------------------
CARTESIAN COORDINATES (A.U.)
----------------------------
  NO LB      ZA    FRAG     MASS         X           Y           Z
   0 C     6.0000    0    12.011    4.571514   -0.391583   -0.000000
   1 O     8.0000    0    15.999    2.332197   -0.122745   -0.000000
   2 H     1.0000    0     1.008    5.924781    1.243872    0.000000
   3 H     1.0000    0     1.008    5.505437   -2.305659   -0.000000

--------------------------------
INTERNAL COORDINATES (ANGSTROEM)
--------------------------------
 C      0   0   0     0.000000000000     0.00000000     0.00000000
 O      1   0   0     1.193504697683     0.00000000     0.00000000
 H      1   2   0     1.123307868889   122.76044499     0.00000000
 H      1   2   3     1.127022960337   122.85466389   180.00000000

---------------------------
INTERNAL COORDINATES (A.U.)
---------------------------
 C      0   0   0     0.000000000000     0.00000000     0.00000000
 O      1   0   0     2.255397018169     0.00000000     0.00000000
 H      1   2   0     2.122744236279   122.76044499     0.00000000
 H      1   2   3     2.129764741678   122.85466389   180.00000000


Diagonalization of the overlap matrix:
Smallest eigenvalue                        ... 1.833e-02
Time for diagonalization                   ...    0.000 sec
Threshold for overlap eigenvalues          ... 1.000e-08
Number of eigenvalues below threshold      ... 0
Time for construction of square roots      ...    0.001 sec
Total time needed                          ...    0.001 sec

-------------------
DFT GRID GENERATION
-------------------

General Integration Accuracy     IntAcc      ...  4.340
Radial Grid Type                 RadialGrid  ... Gauss-Chebyshev
Angular Grid (max. acc.)         AngularGrid ... Lebedev-110
Angular grid pruning method      GridPruning ... 3 (G Style)
Weight generation scheme         WeightScheme... Becke
Basis function cutoff            BFCut       ...    1.0000e-11
Integration weight cutoff        WCut        ...    1.0000e-14
Grids for H and He will be reduced by one unit

# of grid points (after initial pruning)     ...   4960 (   0.0 sec)
# of grid points (after weights+screening)   ...   4875 (   0.0 sec)
nearest neighbour list constructed           ...    0.0 sec
Grid point re-assignment to atoms done       ...    0.0 sec
Grid point division into batches done        ...    0.0 sec
Reduced shell lists constructed in    0.0 sec

Total number of grid points                  ...     4875
Total number of batches                      ...       78
Average number of points per batch           ...       62
Average number of grid points per atom       ...     1219
Average number of shells per batch           ...    15.94 (88.54%)
Average number of basis functions per batch  ...    33.94 (89.31%)
Average number of large shells per batch     ...    14.96 (93.88%)
Average number of large basis fcns per batch ...    31.62 (93.17%)
Maximum spatial batch extension              ...  19.44, 25.60, 31.36 au
Average spatial batch extension              ...   5.02,  4.67,  5.82 au

Time for grid setup =    0.020 sec

--------------
SCF ITERATIONS
--------------
ITER       Energy         Delta-E        Max-DP      RMS-DP      [F,P]     Damp
               ***  Starting incremental Fock matrix formation  ***
                      *** Initiating the SOSCF procedure ***
                      *** Re-Reading the Fockian *** 
                      *** Removing any level shift *** 
ITER      Energy       Delta-E        Grad      Rot      Max-DP    RMS-DP
  0   -114.28374946 -114.2837494580  0.002137  0.002137  0.003428  0.000328
               *** Restarting incremental Fock matrix formation ***
  1   -114.28380897  -0.0000595118  0.001107  0.002799  0.003573  0.000309
  2   -114.28379456   0.0000144137  0.002794  0.002487  0.002943  0.000168
  3   -114.28382195  -0.0000273970  0.000060  0.000089  0.000231  0.000013
  4   -114.28382197  -0.0000000210  0.000047  0.000039  0.000090  0.000006
  5   -114.28382199  -0.0000000188  0.000003  0.000004  0.000007  0.000000
                 **** Energy Check signals convergence ****
              ***Rediagonalizing the Fockian in SOSCF/NRSCF***

               *****************************************************
               *                     SUCCESS                       *
               *           SCF CONVERGED AFTER   6 CYCLES          *
               *****************************************************

Setting up the final grid:

General Integration Accuracy     IntAcc      ...  4.670
Radial Grid Type                 RadialGrid  ... Gauss-Chebyshev
Angular Grid (max. acc.)         AngularGrid ... Lebedev-302
Angular grid pruning method      GridPruning ... 3 (G Style)
Weight generation scheme         WeightScheme... Becke
Basis function cutoff            BFCut       ...    1.0000e-11
Integration weight cutoff        WCut        ...    1.0000e-14
Grids for H and He will be reduced by one unit

# of grid points (after initial pruning)     ...  19212 (   0.0 sec)
# of grid points (after weights+screening)   ...  18865 (   0.0 sec)
nearest neighbour list constructed           ...    0.0 sec
Grid point re-assignment to atoms done       ...    0.0 sec
Grid point division into batches done        ...    0.1 sec
Reduced shell lists constructed in    0.1 sec

Total number of grid points                  ...    18865
Total number of batches                      ...      297
Average number of points per batch           ...       63
Average number of grid points per atom       ...     4716
Average number of shells per batch           ...    14.68 (81.54%)
Average number of basis functions per batch  ...    31.28 (82.32%)
Average number of large shells per batch     ...    13.44 (91.59%)
Average number of large basis fcns per batch ...    28.53 (91.20%)
Maximum spatial batch extension              ...  17.72, 16.88, 19.58 au
Average spatial batch extension              ...   3.32,  3.13,  3.74 au

Final grid set up in    0.1 sec
Final integration                            ... done (   0.0 sec)
Change in XC energy                          ...    -0.000044684
Integrated number of electrons               ...    16.000004502
Previous integrated no of electrons          ...    15.999527618
Total Energy       :         -114.28386668 Eh           -3109.82211 eV
  Last Energy change         ...   -3.0639e-11  Tolerance :   1.0000e-08
  Last MAX-Density change    ...    1.2318e-06  Tolerance :   1.0000e-07
             **** THE GBW FILE WAS UPDATED (temp.gbw) ****
             **** DENSITY FILE WAS UPDATED (temp.scfp) ****
             **** ENERGY FILE WAS UPDATED (temp.en.tmp) ****
             **** THE GBW FILE WAS UPDATED (temp.gbw) ****
             **** DENSITY FILE WAS UPDATED (temp.scfp) ****
Total SCF time: 0 days 0 hours 0 min 1 sec 

-------------------------   --------------------
FINAL SINGLE POINT ENERGY      -114.283866676668
-------------------------   --------------------

------------------------------------------------------------------------------
                         ORCA SCF GRADIENT CALCULATION
------------------------------------------------------------------------------

Gradient of the Kohn-Sham DFT energy:
Kohn-Sham wavefunction type      ... RKS
Hartree-Fock exchange scaling    ...    0.250
Number of operators              ...    1
Number of atoms                  ...    4
Basis set dimensions             ...   38
Integral neglect threshold       ... 2.5e-11
Integral primitive cutoff        ... 2.5e-12

Nuclear repulsion gradient       ... done
One Electron Gradient            ... done
Pre-screening matrix             ... done
Starting the two electron gradient:
Two electron gradient done
Exchange-correlation gradient    ... done

------------------
CARTESIAN GRADIENT
------------------

   1   C   :   -0.007065302    0.002414819    0.000000001
   2   O   :    0.003232939   -0.000210439   -0.000000000
   3   H   :    0.001469921    0.000812714   -0.000000000
   4   H   :    0.002362441   -0.003017094   -0.000000000

Difference to translation invariance:
           :   -0.0000000000    0.0000000000    0.0000000000

Norm of the cartesian gradient     ...    0.0091515668
RMS gradient                       ...    0.0026418298
MAX gradient                       ...    0.0070653015

-------
TIMINGS
-------

Total SCF gradient time            ...        0.386 sec

One electron gradient       ....       0.003 sec  (  0.7%)
Prescreening matrices       ....       0.009 sec  (  2.3%)
Two electron gradient       ....       0.086 sec  ( 22.3%)
XC gradient                 ....       0.180 sec  ( 46.6%)
------------------------------------------------------------------------------
                         ORCA GEOMETRY RELAXATION STEP
------------------------------------------------------------------------------

Reading the OPT-File                    .... done
Getting information on internals        .... done
Copying old internal coords+grads       .... done
Making the new internal coordinates     .... (new redundants).... done
Validating the new internal coordinates .... (new redundants).... done
Calculating the B-matrix                .... done
Calculating the G,G- and P matrices     .... done
Transforming gradient to internals      .... done
Projecting the internal gradient        .... done
Number of atoms                         ....   4
Number of internal coordinates          ....   7
Current Energy                          ....  -114.283866677 Eh
Current gradient norm                   ....     0.009151567 Eh/bohr
Maximum allowed component of the step   ....  0.300
Current trust radius                    ....  0.300
Updating the Hessian (BFGS)             .... done
Forming the augmented Hessian           .... done
Diagonalizing the augmented Hessian     .... done
Last element of RFO vector              ....  0.999849719
Lowest eigenvalues of augmented Hessian:
 -0.000070961  0.115904749  0.128899190  0.363784751  0.393017259
Length of the computed step             ....  0.017338681
The final length of the internal step   ....  0.017338681
Converting the step to cartesian space:
 Initial RMS(Int)=    0.0065534056
Transforming coordinates:
 Iter   0:  RMS(Cart)=    0.0035616561 RMS(Int)=    0.0065566183
 Iter   1:  RMS(Cart)=    0.0000199454 RMS(Int)=    0.0000240911
 Iter   2:  RMS(Cart)=    0.0000000770 RMS(Int)=    0.0000001152
done
Storing new coordinates                 .... done

                                .--------------------.
          ----------------------|Geometry convergence|-------------------------
          Item                value                   Tolerance       Converged
          ---------------------------------------------------------------------
          Energy change      -0.0004024807            0.0000050000      NO
          RMS gradient        0.0020192037            0.0001000000      NO
          MAX gradient        0.0037474943            0.0003000000      NO
          RMS step            0.0065534056            0.0020000000      NO
          MAX step            0.0108672093            0.0040000000      NO
          ........................................................
          Max(Bonds)      0.0049      Max(Angles)    0.62
          Max(Dihed)        0.00      Max(Improp)    0.00
          ---------------------------------------------------------------------

The optimization has not yet converged - more geometry cycles are needed


    ---------------------------------------------------------------------------
                         Redundant Internal Coordinates
                            (Angstroem and degrees)

        Definition                    Value    dE/dq     Step     New-Value
    ----------------------------------------------------------------------------
     1. B(O   1,C   0)                1.1935 -0.003235  0.0020    1.1955   
     2. B(H   2,C   0)                1.1233  0.001563 -0.0025    1.1208   
     3. B(H   3,C   0)                1.1270  0.003747 -0.0049    1.1221   
     4. A(O   1,C   0,H   3)          122.85  0.000701   -0.34    122.51   
     5. A(H   2,C   0,H   3)          114.38 -0.001003    0.62    115.01   
     6. A(O   1,C   0,H   2)          122.76  0.000302   -0.28    122.48   
     7. I(O   1,H   3,H   2,C   0)     -0.00 -0.000000    0.00      0.00   
    ----------------------------------------------------------------------------

         *************************************************************
         *                GEOMETRY OPTIMIZATION CYCLE   5            *
         *************************************************************
---------------------------------
CARTESIAN COORDINATES (ANGSTROEM)
---------------------------------
  C      2.423143   -0.208028   -0.000000
  O      1.236113   -0.065965   -0.000000
  H      3.133123    0.659207    0.000000
  H      2.909518   -1.219258   -0.000000

----------------------------
CARTESIAN COORDINATES (A.U.)
----------------------------
  NO LB      ZA    FRAG     MASS         X           Y           Z
   0 C     6.0000    0    12.011    4.579078   -0.393116   -0.000000
   1 O     8.0000    0    15.999    2.335915   -0.124655   -0.000000
   2 H     1.0000    0     1.008    5.920745    1.245720    0.000000
   3 H     1.0000    0     1.008    5.498192   -2.304064   -0.000000

--------------------------------
INTERNAL COORDINATES (ANGSTROEM)
--------------------------------
 C      0   0   0     0.000000000000     0.00000000     0.00000000
 O      1   0   0     1.195501257652     0.00000000     0.00000000
 H      1   2   0     1.120788654812   122.48150001     0.00000000
 H      1   2   3     1.122117052542   122.51096371   180.00000000

---------------------------
INTERNAL COORDINATES (A.U.)
---------------------------
 C      0   0   0     0.000000000000     0.00000000     0.00000000
 O      1   0   0     2.259169969721     0.00000000     0.00000000
 H      1   2   0     2.117983611600   122.48150001     0.00000000
 H      1   2   3     2.120493919508   122.51096371   180.00000000


Diagonalization of the overlap matrix:
Smallest eigenvalue                        ... 1.830e-02
Time for diagonalization                   ...    0.001 sec
Threshold for overlap eigenvalues          ... 1.000e-08
Number of eigenvalues below threshold      ... 0
Time for construction of square roots      ...    0.001 sec
Total time needed                          ...    0.002 sec

-------------------
DFT GRID GENERATION
-------------------

General Integration Accuracy     IntAcc      ...  4.340
Radial Grid Type                 RadialGrid  ... Gauss-Chebyshev
Angular Grid (max. acc.)         AngularGrid ... Lebedev-110
Angular grid pruning method      GridPruning ... 3 (G Style)
Weight generation scheme         WeightScheme... Becke
Basis function cutoff            BFCut       ...    1.0000e-11
Integration weight cutoff        WCut        ...    1.0000e-14
Grids for H and He will be reduced by one unit

# of grid points (after initial pruning)     ...   4960 (   0.0 sec)
# of grid points (after weights+screening)   ...   4876 (   0.0 sec)
nearest neighbour list constructed           ...    0.0 sec
Grid point re-assignment to atoms done       ...    0.0 sec
Grid point division into batches done        ...    0.0 sec
Reduced shell lists constructed in    0.0 sec

Total number of grid points                  ...     4876
Total number of batches                      ...       78
Average number of points per batch           ...       62
Average number of grid points per atom       ...     1219
Average number of shells per batch           ...    15.94 (88.54%)
Average number of basis functions per batch  ...    33.94 (89.31%)
Average number of large shells per batch     ...    14.99 (94.04%)
Average number of large basis fcns per batch ...    31.72 (93.47%)
Maximum spatial batch extension              ...  19.42, 25.60, 31.36 au
Average spatial batch extension              ...   5.03,  4.67,  5.81 au

Time for grid setup =    0.018 sec

--------------
SCF ITERATIONS
--------------
ITER       Energy         Delta-E        Max-DP      RMS-DP      [F,P]     Damp
               ***  Starting incremental Fock matrix formation  ***
                      *** Initiating the SOSCF procedure ***
                      *** Re-Reading the Fockian *** 
                      *** Removing any level shift *** 
ITER      Energy       Delta-E        Grad      Rot      Max-DP    RMS-DP
  0   -114.28385255 -114.2838525485  0.000953  0.000953  0.001490  0.000147
[...]
  26   0.0000       1.813137        49.3380 
  27   0.0000       1.859413        50.5972 
  28   0.0000       1.918742        52.2116 
  29   0.0000       2.072184        56.3870 
  30   0.0000       2.504837        68.1601 
  31   0.0000       2.585464        70.3540 
  32   0.0000       2.610358        71.0315 
  33   0.0000       2.701416        73.5093 
  34   0.0000       2.910904        79.2097 
  35   0.0000       3.146501        85.6206 
  36   0.0000       3.426254        93.2331 
  37   0.0000       3.588713        97.6538 

                    ********************************
                    * MULLIKEN POPULATION ANALYSIS *
                    ********************************

-----------------------
MULLIKEN ATOMIC CHARGES
-----------------------
   0 C :    0.147021
   1 O :   -0.221565
   2 H :    0.037986
   3 H :    0.036558
Sum of atomic charges:   -0.0000000

--------------------------------
MULLIKEN REDUCED ORBITAL CHARGES
--------------------------------
  0 C s       :     3.177862  s :     3.177862
      pz      :     0.731693  p :     2.595933
      px      :     0.882045
      py      :     0.982194
      dz2     :     0.003561  d :     0.079184
      dxz     :     0.015302
      dyz     :     0.000220
      dx2y2   :     0.018306
      dxy     :     0.041794
  1 O s       :     3.798711  s :     3.798711
      pz      :     1.241829  p :     4.403329
      px      :     1.343803
      py      :     1.817696
      dz2     :     0.001982  d :     0.019525
      dxz     :     0.006502
      dyz     :     0.000093
      dx2y2   :     0.006262
      dxy     :     0.004686
  2 H s       :     0.941640  s :     0.941640
      pz      :     0.002180  p :     0.020375
      px      :     0.006912
      py      :     0.011282
  3 H s       :     0.943077  s :     0.943077
      pz      :     0.002181  p :     0.020365
      px      :     0.004257
      py      :     0.013927


                     *******************************
                     * LOEWDIN POPULATION ANALYSIS *
                     *******************************

----------------------
LOEWDIN ATOMIC CHARGES
----------------------
   0 C :    0.128152
   1 O :   -0.116946
   2 H :   -0.005410
   3 H :   -0.005796

-------------------------------
LOEWDIN REDUCED ORBITAL CHARGES
-------------------------------
  0 C s       :     2.926338  s :     2.926338
      pz      :     0.725456  p :     2.760744
      px      :     0.989921
      py      :     1.045367
      dz2     :     0.009954  d :     0.184766
      dxz     :     0.025583
      dyz     :     0.000367
      dx2y2   :     0.045908
      dxy     :     0.102954
  1 O s       :     3.559347  s :     3.559347
      pz      :     1.226140  p :     4.525123
      px      :     1.490715
      py      :     1.808267
      dz2     :     0.004330  d :     0.032477
      dxz     :     0.007544
      dyz     :     0.000108
      dx2y2   :     0.012824
      dxy     :     0.007670
  2 H s       :     0.940873  s :     0.940873
      pz      :     0.007399  p :     0.064537
      px      :     0.022968
      py      :     0.034169
  3 H s       :     0.941244  s :     0.941244
      pz      :     0.007403  p :     0.064552
      px      :     0.014475
      py      :     0.042674


                      *****************************
                      * MAYER POPULATION ANALYSIS *
                      *****************************

  NA   - Mulliken gross atomic population
  ZA   - Total nuclear charge
  QA   - Mulliken gross atomic charge
  VA   - Mayer's total valence
  BVA  - Mayer's bonded valence
  FA   - Mayer's free valence

  ATOM       NA         ZA         QA         VA         BVA        FA
  0 C      5.8530     6.0000     0.1470     3.9453     3.9453    -0.0000
  1 O      8.2216     8.0000    -0.2216     2.2036     2.2036    -0.0000
  2 H      0.9620     1.0000     0.0380     0.9544     0.9544    -0.0000
  3 H      0.9634     1.0000     0.0366     0.9541     0.9541    -0.0000

  Mayer bond orders larger than 0.100000
B(  0-C ,  1-O ) :   2.1193 B(  0-C ,  2-H ) :   0.9132 B(  0-C ,  3-H ) :   0.9128 


-------
TIMINGS
-------

Total SCF time: 0 days 0 hours 0 min 1 sec 

Total time                  ....       1.467 sec
Sum of individual times     ....       1.201 sec  ( 81.8%)

Fock matrix formation       ....       1.084 sec  ( 73.9%)
  XC integration            ....       0.128 sec  ( 11.8% of F)
    Basis function eval.    ....       0.040 sec  ( 31.2% of XC)
    Density eval.           ....       0.027 sec  ( 21.3% of XC)
    XC-Functional eval.     ....       0.025 sec  ( 19.5% of XC)
    XC-Potential eval.      ....       0.022 sec  ( 17.2% of XC)
Diagonalization             ....       0.000 sec  (  0.0%)
Density matrix formation    ....       0.000 sec  (  0.0%)
Population analysis         ....       0.002 sec  (  0.1%)
Initial guess               ....       0.001 sec  (  0.1%)
Orbital Transformation      ....       0.000 sec  (  0.0%)
Orbital Orthonormalization  ....       0.000 sec  (  0.0%)
DIIS solution               ....       0.000 sec  (  0.0%)
SOSCF solution              ....       0.001 sec  (  0.1%)
Grid generation             ....       0.112 sec  (  7.6%)

-------------------------   --------------------
FINAL SINGLE POINT ENERGY      -114.283914420920
-------------------------   --------------------

                                *** OPTIMIZATION RUN DONE ***

                            ***************************************
                            *     ORCA property calculations      *
                            ***************************************

                                    ---------------------
                                    Active property flags
                                    ---------------------
   (+) Dipole Moment


------------------------------------------------------------------------------
                       ORCA ELECTRIC PROPERTIES CALCULATION
------------------------------------------------------------------------------

Dipole Moment Calculation                       ... on
Quadrupole Moment Calculation                   ... off
Polarizability Calculation                      ... off
GBWName                                         ... temp.gbw
Electron density file                           ... temp.scfp
The origin for moment calculation is the CENTER OF MASS  = ( 3.459760, -0.259791 -0.000000)

-------------
DIPOLE MOMENT
-------------
                                X             Y             Z
Electronic contribution:     -1.37398       0.16500      -0.00000
Nuclear contribution   :      2.22488      -0.26577       0.00000
                        -----------------------------------------
Total Dipole Moment    :      0.85091      -0.10077       0.00000
                        -----------------------------------------
Magnitude (a.u.)       :      0.85685
Magnitude (Debye)      :      2.17795



--------------------
Rotational spectrum 
--------------------
 
Rotational constants in cm-1:     9.374019     1.304828     1.145394 
Rotational constants in MHz : 281026.025993 39117.769893 34338.042967 

 Dipole components along the rotational axes: 
x,y,z [a.u.] :    -0.856854     0.000906    -0.000000 
x,y,z [Debye]:    -2.177949     0.002303    -0.000000 

 

-------------------------------------------------------------------------------
                               ORCA SCF HESSIAN
-------------------------------------------------------------------------------

Hessian of the Kohn-Sham DFT energy:
Kohn-Sham wavefunction type                      ... RKS
Hartree-Fock exchange scaling                    ...    0.250
Number of operators                              ...    1
Number of atoms                                  ...    4
Basis set dimensions                             ...   38
Integral neglect threshold                       ... 2.5e-11
Integral primitive cutoff                        ... 2.5e-12

Setting up DFT Hessian calculations              ... 
Electron density on the grid                     ... found on disk
Electron density on the final grid               ... found on disk
Building xc-kernel on the grid                   ... done   (      0.0 sec)
Building xc-kernel on the final grid             ... done   (      0.0 sec)
                                                     done   (      0.1 sec)

Nuclear repulsion Hessian                        ... done   (      0.0 sec)

----------------------------------------------
Forming right-hand sides of CP-SCF equations     ...
----------------------------------------------
One electron integral derivatives                ... done   (      0.1 sec)
Transforming the overlap derivative matrices     ... done   (      0.0 sec)
Making the Q(x) pseudodensities                  ... done   (      0.0 sec)
Adding the E*S(x)*S(y) terms to the Hessian      ... done   (      0.0 sec)
Calculating energy weighted overlap derivatives  ... done   (      0.0 sec)
Two electron integral derivatives                ... done   (      0.3 sec)
Exchange-correlation integral derivatives        ... done   (      0.9 sec)
tr(F(y)Q(x)) contribution to the Hessian         ... done   (      0.0 sec)
Response fock operator R(S(x))                   ... done   (      0.2 sec)
XC Response fock operator R(S(x))                ... done   (      0.2 sec)
tr(F(y)S(x)) contribution to the Hessian         ... done   (      0.0 sec)
Transforming and finalizing RHSs                 ... done   (      0.0 sec)

----------------------------------------------
Solving the CP-SCF equations                     ...
----------------------------------------------
     CP-SCF ITERATION   0: 
     CP-SCF ITERATION   1:      0.005364858296
     CP-SCF ITERATION   2:      0.000189914736
     CP-SCF ITERATION   3:      0.000005313557
     CP-SCF ITERATION   4:      0.000000066420
     CP-SCF ITERATION   5:      0.000000008856

                                                 ... done   (      1.4 sec)
Forming perturbed density Hessian contributions  ... done   (      0.0 sec)
Making the perturbed densities                   ... done   (      0.0 sec)
2nd integral derivative contribs                 ... done   (      0.8 sec)
Exchange-correlation Hessian                     ... done   (      1.1 sec)
Dipol derivatives                                ... done   (      0.1 sec)

Total SCF Hessian time: 0 days 0 hours 0 min 5 sec 

Writing the Hessian file to the disk             ... done


Maximum memory used throughout the entire calculation: 100.8 MB

-----------------------
VIBRATIONAL FREQUENCIES
-----------------------

Scaling factor for frequencies =  1.000000000  (already applied!)

   0:         0.00 cm**-1
   1:         0.00 cm**-1
   2:         0.00 cm**-1
   3:         0.00 cm**-1
   4:         0.00 cm**-1
   5:         0.00 cm**-1
   6:      1200.30 cm**-1
   7:      1268.72 cm**-1
   8:      1532.95 cm**-1
   9:      1897.53 cm**-1
  10:      2900.98 cm**-1
  11:      2966.00 cm**-1


------------
NORMAL MODES
------------

These modes are the Cartesian displacements weighted by the diagonal matrix
M(i,i)=1/sqrt(m[i]) where m[i] is the mass of the displaced atom
Thus, these vectors are normalized but *not* orthogonal

                  0          1          2          3          4          5    
      0       0.000000   0.000000   0.000000   0.000000   0.000000   0.000000
      1       0.000000   0.000000   0.000000   0.000000   0.000000   0.000000
      2       0.000000   0.000000   0.000000   0.000000   0.000000   0.000000
      3       0.000000   0.000000   0.000000   0.000000   0.000000   0.000000
      4       0.000000   0.000000   0.000000   0.000000   0.000000   0.000000
      5       0.000000   0.000000   0.000000   0.000000   0.000000   0.000000
      6       0.000000   0.000000   0.000000   0.000000   0.000000   0.000000
      7       0.000000   0.000000   0.000000   0.000000   0.000000   0.000000
      8       0.000000   0.000000   0.000000   0.000000   0.000000   0.000000
      9       0.000000   0.000000   0.000000   0.000000   0.000000   0.000000
     10       0.000000   0.000000   0.000000   0.000000   0.000000   0.000000
     11       0.000000   0.000000   0.000000   0.000000   0.000000   0.000000
                  6          7          8          9         10         11    
      0      -0.000000  -0.017720  -0.003717  -0.604963   0.060544   0.011290
      1      -0.000000  -0.148784   0.000225   0.072220  -0.006096   0.100635
      2       0.175486  -0.000000   0.000000  -0.000000   0.000000   0.000000
      3       0.000000   0.009663  -0.072993   0.437171  -0.000300  -0.000094
      4       0.000000   0.080065   0.008835  -0.052211   0.000025  -0.000810
      5      -0.044113   0.000000  -0.000000   0.000000   0.000000  -0.000000
      6       0.000000  -0.615804   0.557647   0.081633  -0.434459  -0.435300
      7       0.000000   0.328750  -0.430015  -0.458873  -0.566083  -0.541820
      8      -0.695373  -0.000000   0.000000  -0.000000  -0.000000  -0.000000
      9       0.000000   0.673585   0.645189   0.188122  -0.282193   0.302260
     10       0.000000   0.173314   0.287103   0.427015   0.638326  -0.644459
     11      -0.695496   0.000000   0.000000  -0.000000   0.000000  -0.000000


-----------
IR SPECTRUM
-----------

 Mode    freq (cm**-1)   T**2         TX         TY         TZ
-------------------------------------------------------------------
   6:      1200.30    1.692895  ( -0.000001   0.000000  -1.301113)
   7:      1268.72   13.261242  ( -0.443082  -3.614543  -0.000000)
   8:      1532.95    5.980349  (  2.425918  -0.308656   0.000000)
   9:      1897.53  115.012854  (-10.647892   1.278769  -0.000000)
  10:      2900.98   58.031322  (  7.579855  -0.759684   0.000000)
  11:      2966.00  148.706339  (  1.350136  12.119549   0.000000)

The first frequency considered to be a vibration is 6
The total number of vibrations considered is 6


--------------------------
THERMOCHEMISTRY AT 298.15K
--------------------------

Temperature         ... 298.15 K
Pressure            ... 1.00 atm
Total Mass          ... 30.03 AMU

Throughout the following assumptions are being made:
  (1) The electronic state is orbitally nondegenerate
  (2) There are no thermally accessible electronically excited states
  (3) Hindered rotations indicated by low frequency modes are not
      treated as such but are treated as vibrations and this may
      cause some error
  (4) All equations used are the standard statistical mechanics
      equations for an ideal gas
  (5) All vibrations are strictly harmonic

freq.    1200.30  E(vib)   ...       0.01 
freq.    1268.72  E(vib)   ...       0.01 
freq.    1532.95  E(vib)   ...       0.00 
freq.    1897.53  E(vib)   ...       0.00 
freq.    2900.98  E(vib)   ...       0.00 
freq.    2966.00  E(vib)   ...       0.00 

------------
INNER ENERGY
------------

The inner energy is: U= E(el) + E(ZPE) + E(vib) + E(rot) + E(trans)
    E(el)   - is the total energy from the electronic structure calculation
              = E(kin-el) + E(nuc-el) + E(el-el) + E(nuc-nuc)
    E(ZPE)  - the the zero temperature vibrational energy from the frequency calculation
    E(vib)  - the the finite temperature correction to E(ZPE) due to population
              of excited vibrational states
    E(rot)  - is the rotational thermal energy
    E(trans)- is the translational thermal energy

Summary of contributions to the inner energy U:
Electronic energy                ...   -114.28391442 Eh
Zero point energy                ...      0.02680602 Eh      16.82 kcal/mol
Thermal vibrational correction   ...      0.00003466 Eh       0.02 kcal/mol
Thermal rotational correction    ...      0.00141627 Eh       0.89 kcal/mol
Thermal translational correction ...      0.00141627 Eh       0.89 kcal/mol
-----------------------------------------------------------------------
Total thermal energy                   -114.25424120 Eh


Summary of corrections to the electronic energy:
(perhaps to be used in another calculation)
Total thermal correction                  0.00286721 Eh       1.80 kcal/mol
Non-thermal (ZPE) correction              0.02680602 Eh      16.82 kcal/mol
-----------------------------------------------------------------------
Total correction                          0.02967322 Eh      18.62 kcal/mol


--------
ENTHALPY
--------

The enthalpy is H = U + kB*T
                kB is Boltzmann's constant
Total free energy                 ...   -114.25424120 Eh 
Thermal Enthalpy correction       ...      0.00094421 Eh       0.59 kcal/mol
-----------------------------------------------------------------------
Total Enthalpy                    ...   -114.25329699 Eh


Note: Rotational entropy computed according to Herzberg 
Infrared and Raman Spectra, Chapter V,1, Van Nostrand Reinhold, 1945 
Point Group:  Cs, Symmetry Number:   1  
Rotational constants in cm-1:     9.374019     1.304828     1.145394 

Vibrational entropy computed according to the QRRHO of S. Grimme
Chem.Eur.J. 2012 18 9955


-------
ENTROPY
-------

The entropy contributions are T*S = T*(S(el)+S(vib)+S(rot)+S(trans))
     S(el)   - electronic entropy
     S(vib)  - vibrational entropy
     S(rot)  - rotational entropy
     S(trans)- translational entropy
The entropies will be listed as mutliplied by the temperature to get
units of energy

Electronic entropy                ...      0.00000000 Eh      0.00 kcal/mol
Vibrational entropy               ...      0.00004031 Eh      0.03 kcal/mol
Rotational entropy                ...      0.00826460 Eh      5.19 kcal/mol
Translational entropy             ...      0.01716732 Eh     10.77 kcal/mol
-----------------------------------------------------------------------
Final entropy term                ...      0.02547223 Eh     15.98 kcal/mol

In case the symmetry of your molecule has not been determined correctly
or in case you have a reason to use a different symmetry number we print 
out the resulting rotational entropy values for sn=1,12 :
 --------------------------------------------------------
|  sn= 1 | S(rot)=       0.00826460 Eh      5.19 kcal/mol|
|  sn= 2 | S(rot)=       0.00761015 Eh      4.78 kcal/mol|
|  sn= 3 | S(rot)=       0.00722731 Eh      4.54 kcal/mol|
|  sn= 4 | S(rot)=       0.00695569 Eh      4.36 kcal/mol|
|  sn= 5 | S(rot)=       0.00674500 Eh      4.23 kcal/mol|
|  sn= 6 | S(rot)=       0.00657286 Eh      4.12 kcal/mol|
|  sn= 7 | S(rot)=       0.00642731 Eh      4.03 kcal/mol|
|  sn= 8 | S(rot)=       0.00630123 Eh      3.95 kcal/mol|
|  sn= 9 | S(rot)=       0.00619003 Eh      3.88 kcal/mol|
|  sn=10 | S(rot)=       0.00609055 Eh      3.82 kcal/mol|
|  sn=11 | S(rot)=       0.00600056 Eh      3.77 kcal/mol|
|  sn=12 | S(rot)=       0.00591840 Eh      3.71 kcal/mol|
 --------------------------------------------------------


-------------------
GIBBS FREE ENERGY
-------------------

The Gibbs free energy is G = H - T*S

Total enthalpy                    ...   -114.25329699 Eh 
Total entropy correction          ...     -0.02547223 Eh    -15.98 kcal/mol
-----------------------------------------------------------------------
Final Gibbs free energy         ...   -114.27876922 Eh

For completeness - the Gibbs free energy minus the electronic energy
G-E(el)                           ...      0.00514520 Eh      3.23 kcal/mol


Timings for individual modules:

Sum of individual times         ...       27.725 sec (=   0.462 min)
GTO integral calculation        ...        3.062 sec (=   0.051 min)  11.0 %
SCF iterations                  ...       15.868 sec (=   0.264 min)  57.2 %
SCF Gradient evaluation         ...        2.999 sec (=   0.050 min)  10.8 %
Geometry relaxation             ...        0.139 sec (=   0.002 min)   0.5 %
Analytical frequency calculation...        5.657 sec (=   0.094 min)  20.4 %
                             ****ORCA TERMINATED NORMALLY****
TOTAL RUN TIME: 0 days 0 hours 0 minutes 27 seconds 960 msec
